Twisted  2 layerstheta=   9.430008 degree.
         148 atoms
 
   2  atom types
 
    0.00000000   14.93955702 xlo xhi
    0.00000000   12.93803590 ylo yhi
  -40.00000000   60.00000000 zlo zhi
   -7.46977851    0.00000000    0.00000000 xy xz yz
 
 Atoms
 
    1    1    5.85469126520014    6.64385627397141   10.00000000000000
    2    1    6.46034898228981    7.92600397596588   10.00000000000000
    3    1    7.87355032216571    8.04256285796539   10.00000000000000
    4    1    8.47920803925538    9.32471055995986   10.00000000000000
    5    1   -5.04714764241391    9.44126944195936   10.00000000000000
    6    1   -4.44148992532424   10.72341714395384   10.00000000000000
    7    1   -3.02828858544835   10.83997602595334   10.00000000000000
    8    1   -2.42263086835868   12.12212372794782   10.00000000000000
    9    1   -1.00942952848278   12.23868260994733   10.00000000000000
   10    1    7.06600669937948    0.58279440999749   10.00000000000000
   11    1    8.47920803925538    0.69935329199699   10.00000000000000
   12    1    9.08486575634504    1.98150099399147   10.00000000000000
   13    1   10.49806709622094    2.09805987599097   10.00000000000000
   14    1   11.10372481331061    3.38020757798545   10.00000000000000
   15    1   12.51692615318651    3.49676645998495   10.00000000000000
   16    1   -1.81697315126901    4.77891416197943   10.00000000000000
   17    1   -0.40377181139311    4.89547304397893   10.00000000000000
   18    1    0.20188590569656    6.17762074597341   10.00000000000000
   19    1    1.61508724557246    6.29417962797291   10.00000000000000
   20    1    2.22074496266213    7.57632732996739   10.00000000000000
   21    1    3.63394630253802    7.69288621196689   10.00000000000000
   22    1    4.23960401962769    8.97503391396137   10.00000000000000
   23    1    5.65280535950358    9.09159279596087   10.00000000000000
   24    1    6.25846307659325   10.37374049795535   10.00000000000000
   25    1    7.67166441646915   10.49029937995485   10.00000000000000
   26    1   -6.66223488798636   11.77244708194933   10.00000000000000
   27    1   -5.24903354811047   11.88900596394883   10.00000000000000
   28    1    2.82640267975179    0.23311776399899   10.00000000000000
   29    1    4.23960401962769    0.34967664599849   10.00000000000000
   30    1    4.84526173671736    1.63182434799297   10.00000000000000
   31    1    6.25846307659325    1.74838322999248   10.00000000000000
   32    1    6.86412079368292    3.03053093198696   10.00000000000000
   33    1    8.27732213355882    3.14708981398645   10.00000000000000
   34    1    8.88297985064849    4.42923751598093   10.00000000000000
   35    1   10.29618119052438    4.54579639798043   10.00000000000000
   36    1   10.90183890761405    5.82794409997491   10.00000000000000
   37    1   -2.62451677405523    5.94450298197441   10.00000000000000
   38    1   -2.01885905696556    7.22665068396890   10.00000000000000
   39    1   -0.60565771708967    7.34320956596839   10.00000000000000
   40    1    0.00000000000000    8.62535726796287   10.00000000000000
   41    1    1.41320133987590    8.74191614996237   10.00000000000000
   42    1    2.01885905696557   10.02406385195685   10.00000000000000
   43    1    3.43206039684146   10.14062273395635   10.00000000000000
   44    1    4.03771811393113   11.42277043595083   10.00000000000000
   45    1    5.45091945380703   11.53932931795033   10.00000000000000
   46    1    6.05657717089670   12.82147701994482   10.00000000000000
   47    1    0.00000000000000   -0.00000000000000   10.00000000000000
   48    1    0.60565771708967    1.28214770199448   10.00000000000000
   49    1    2.01885905696556    1.39870658399398   10.00000000000000
   50    1    2.62451677405523    2.68085428598846   10.00000000000000
   51    1    4.03771811393113    2.79741316798796   10.00000000000000
   52    1    4.64337583102080    4.07956086998244   10.00000000000000
   53    1    6.05657717089670    4.19611975198194   10.00000000000000
   54    1    6.66223488798637    5.47826745397642   10.00000000000000
   55    1    8.07543622786226    5.59482633597592   10.00000000000000
   56    1    8.68109394495193    6.87697403797040   10.00000000000000
   57    1   10.09429528482783    6.99353291996990   10.00000000000000
   58    1   -4.23960401962769    8.27568062196438   10.00000000000000
   59    1   -2.82640267975179    8.39223950396388   10.00000000000000
   60    1   -2.22074496266212    9.67438720595836   10.00000000000000
   61    1   -0.80754362278622    9.79094608795786   10.00000000000000
   62    1   -0.20188590569655   11.07309378995234   10.00000000000000
   63    1    1.21131543417934   11.18965267195184   10.00000000000000
   64    1    1.81697315126901   12.47180037394632   10.00000000000000
   65    1    3.23017449114491   12.58835925594582   10.00000000000000
   66    1   11.30561071900717    0.93247105599598   10.00000000000000
   67    1   12.71881205888306    1.04902993799548   10.00000000000000
   68    1   13.32446977597273    2.33117763998997   10.00000000000000
   69    1   -0.20188590569656    2.44773652198946   10.00000000000000
   70    1    0.40377181139311    3.72988422398394   10.00000000000000
   71    1    1.81697315126901    3.84644310598344   10.00000000000000
   72    1    2.42263086835868    5.12859080797793   10.00000000000000
   73    1    3.83583220823457    5.24514968997742   10.00000000000000
   74    1    4.44148992532424    6.52729739197191   10.00000000000000
   75    2    2.82640267975180    8.39223950396388   13.36000000000000
   76    2    3.63394630253802    9.55782832395886   13.36000000000000
   77    2    5.04714764241392    9.44126944195936   13.36000000000000
   78    2    5.85469126520014   10.60685826195435   13.36000000000000
   79    2    7.26789260507604   10.49029937995485   13.36000000000000
   80    2    8.07543622786226   11.65588819994983   13.36000000000000
   81    2   -5.45091945380702   11.53932931795033   13.36000000000000
   82    2   -4.64337583102080   12.70491813794531   13.36000000000000
   83    2   -3.23017449114490   12.58835925594582   13.36000000000000
   84    2    5.04714764241392    0.81591217399649   13.36000000000000
   85    2    6.46034898228981    0.69935329199699   13.36000000000000
   86    2    7.26789260507604    1.86494211199197   13.36000000000000
   87    2    8.68109394495193    1.74838322999247   13.36000000000000
   88    2    9.48863756773816    2.91397204998746   13.36000000000000
   89    2   10.90183890761405    2.79741316798796   13.36000000000000
   90    2   11.70938253040028    3.96300198798295   13.36000000000000
   91    2   -1.81697315126900    3.84644310598344   13.36000000000000
   92    2   -1.00942952848278    5.01203192597843   13.36000000000000
   93    2    0.40377181139312    4.89547304397893   13.36000000000000
   94    2    1.21131543417934    6.06106186397391   13.36000000000000
   95    2    2.62451677405524    5.94450298197441   13.36000000000000
   96    2    3.43206039684147    7.11009180196940   13.36000000000000
   97    2    4.84526173671736    6.99353291996990   13.36000000000000
   98    2    5.65280535950359    8.15912173996488   13.36000000000000
   99    2    7.06600669937948    8.04256285796539   13.36000000000000
  100    2    7.87355032216571    9.20815167796037   13.36000000000000
  101    2    3.02828858544835   10.83997602595334   13.36000000000000
  102    2    3.83583220823458   12.00556484594832   13.36000000000000
  103    2    5.24903354811047   11.88900596394883   13.36000000000000
  104    2   13.52635568166929    0.11655888199949   13.36000000000000
  105    2   -0.00000000000000   -0.00000000000000   13.36000000000000
  106    2    0.80754362278623    1.16558881999498   13.36000000000000
  107    2    2.22074496266212    1.04902993799548   13.36000000000000
  108    2    3.02828858544835    2.21461875799046   13.36000000000000
  109    2    4.44148992532425    2.09805987599097   13.36000000000000
  110    2    5.24903354811047    3.26364869598595   13.36000000000000
  111    2    6.66223488798637    3.14708981398645   13.36000000000000
  112    2    7.46977851077259    4.31267863398144   13.36000000000000
  113    2    8.88297985064849    4.19611975198194   13.36000000000000
  114    2    9.69052347343472    5.36170857197692   13.36000000000000
  115    2   11.10372481331061    5.24514968997743   13.36000000000000
  116    2   -3.02828858544835    6.41073850997241   13.36000000000000
  117    2   -1.61508724557245    6.29417962797291   13.36000000000000
  118    2   -0.80754362278622    7.45976844796789   13.36000000000000
  119    2    0.60565771708967    7.34320956596839   13.36000000000000
  120    2    1.41320133987590    8.50879838596338   13.36000000000000
  121    2   10.69995300191749    0.34967664599849   13.36000000000000
  122    2   11.50749662470372    1.51526546599348   13.36000000000000
  123    2   12.92069796457962    1.39870658399398   13.36000000000000
  124    2   -1.21131543417934    2.56429540398896   13.36000000000000
  125    2    0.20188590569656    2.44773652198946   13.36000000000000
  126    2    1.00942952848278    3.61332534198445   13.36000000000000
  127    2    2.42263086835868    3.49676645998495   13.36000000000000
  128    2    3.23017449114491    4.66235527997993   13.36000000000000
  129    2    4.64337583102080    4.54579639798043   13.36000000000000
  130    2    5.45091945380703    5.71138521797542   13.36000000000000
  131    2    6.86412079368292    5.59482633597592   13.36000000000000
  132    2    7.67166441646915    6.76041515597090   13.36000000000000
  133    2    9.08486575634505    6.64385627397140   13.36000000000000
  134    2    9.89240937913127    7.80944509396639   13.36000000000000
  135    2   -3.63394630253801    7.69288621196689   13.36000000000000
  136    2   -2.82640267975179    8.85847503196187   13.36000000000000
  137    2   -1.41320133987589    8.74191614996237   13.36000000000000
  138    2   -0.60565771708967    9.90750496995736   13.36000000000000
  139    2    0.80754362278623    9.79094608795786   13.36000000000000
  140    2    1.61508724557245   10.95653490795284   13.36000000000000
  141    2    9.28675166204160    9.09159279596087   13.36000000000000
  142    2   -4.84526173671735   10.25718161595585   13.36000000000000
  143    2   -3.43206039684146   10.14062273395635   13.36000000000000
  144    2   -2.62451677405523   11.30621155395134   13.36000000000000
  145    2   -1.21131543417934   11.18965267195184   13.36000000000000
  146    2   -0.40377181139311   12.35524149194682   13.36000000000000
  147    2    1.00942952848279   12.23868260994732   13.36000000000000
  148    2    9.28675166204160    0.46623552799799   13.36000000000000
