Twisted  2 layerstheta=  59.999998 degree.
           4 atoms
 
   2  atom types
 
    0.00000000    2.45604805 xlo xhi
    0.00000000    2.12700000 ylo yhi
  -40.00000000   60.00000000 zlo zhi
   -1.22802402    0.00000000    0.00000000 xy xz yz
 
 Atoms
 
    1    1   -0.00000000000000   -0.00000000000000   10.00000000000000
    2    1    0.00000000000000    1.41800000000000   10.00000000000000
    3    2   -0.00000000000000    0.00000000000000   13.36000000000000
    4    2    1.22802402256633    0.70900000000000   13.36000000000000
