Twisted  3 layerstheta=  21.786789 degree.
          42 atoms
 
   3  atom types
 
    0.00000000    6.50854823 xlo xhi
    0.00000000    5.63656810 ylo yhi
  -40.00000000   60.00000000 zlo zhi
   -3.25427411    0.00000000    0.00000000 xy xz yz
 
 Atoms
 
    1    1   -0.46489630180135    2.41567204491243   10.00000000000000
    2    1   -0.00000000000000    3.75771206986378   10.00000000000000
    3    1    1.39468890540405    4.02612007485405   10.00000000000000
    4    1    1.85958520720540    5.36816009980541   10.00000000000000
    5    1   -0.00000000000000   -0.00000000000000   10.00000000000000
    6    1    0.46489630180135    1.34204002495135   10.00000000000000
    7    1    1.85958520720540    1.61044802994162   10.00000000000000
    8    1    2.32448150900675    2.95248805489297   10.00000000000000
    9    1    3.71917041441080    3.22089605988324   10.00000000000000
   10    1   -2.32448150900675    4.56293608483460   10.00000000000000
   11    1   -0.92979260360270    4.83134408982487   10.00000000000000
   12    1    2.78937781080810    0.53681600998054   10.00000000000000
   13    1    4.18406671621215    0.80522401497081   10.00000000000000
   14    1    4.64896301801350    2.14726403992216   10.00000000000000
   15    2    2.32448150900675    0.80522401497081   13.36000000000000
   16    2    3.25427411260945    1.87885603493189   13.36000000000000
   17    2    4.64896301801350    1.61044802994162   13.36000000000000
   18    2   -0.92979260360270    2.68408004990270   13.36000000000000
   19    2    0.46489630180135    2.41567204491243   13.36000000000000
   20    2    1.39468890540405    3.48930406487351   13.36000000000000
   21    2    2.78937781080810    3.22089605988325   13.36000000000000
   22    2    3.71917041441080    4.29452807984433   13.36000000000000
   23    2   -1.39468890540405    4.02612007485405   13.36000000000000
   24    2   -0.46489630180135    5.09975209481514   13.36000000000000
   25    2    0.92979260360270    4.83134408982487   13.36000000000000
   26    2    5.11385931981484    0.26840800499027   13.36000000000000
   27    2    0.00000000000000   -0.00000000000000   13.36000000000000
   28    2    0.92979260360270    1.07363201996108   13.36000000000000
   29    3   -1.85958520720540    5.36816009980541   16.72000000000000
   30    3    2.32448150900675    0.80522401497081   16.72000000000000
   31    3    3.71917041441080    0.53681600998053   16.72000000000000
   32    3    4.64896301801350    1.61044802994162   16.72000000000000
   33    3   -0.46489630180135    1.34204002495135   16.72000000000000
   34    3    0.46489630180135    2.41567204491243   16.72000000000000
   35    3    1.85958520720540    2.14726403992216   16.72000000000000
   36    3    2.78937781080810    3.22089605988325   16.72000000000000
   37    3    4.18406671621214    2.95248805489297   16.72000000000000
   38    3   -1.39468890540405    4.02612007485405   16.72000000000000
   39    3    0.00000000000000    3.75771206986378   16.72000000000000
   40    3    0.92979260360270    4.83134408982487   16.72000000000000
   41    3    2.32448150900675    4.56293608483460   16.72000000000000
   42    3    0.00000000000000   -0.00000000000000   16.72000000000000
