 
             +---------------------------------------------------+
             |                                                   |
             |                   WANNIER90                       |
             |                                                   |
             +---------------------------------------------------+
             |                                                   |
             |        Welcome to the Maximally-Localized         |
             |        Generalized Wannier Functions code         |
             |            http://www.wannier.org                 |
             |                                                   |
             |  Wannier90 Authors:                               |
             |    Arash A. Mostofi   (Imperial College London)   |
             |    Jonathan R. Yates  (University of Oxford)      |
             |    Young-Su Lee       (KIST, S. Korea)            |
             |                                                   |
             |  Wannier90 Contributors:                          |
             |    Matthew Shelley    (Imperial College London)   |
             |    Nicolas Poilvert   (MIT)                       |
             |                                                   |
             |  Wannier77 Authors:                               |
             |    Nicola Marzari     (University of Oxford)      |
             |    Ivo Souza          (UC Berkeley)               |
             |    David Vanderbilt   (Rutgers University)        |
             |                                                   |
             |  Please cite                                      |
             |                                                   |
             |  [ref] "Wannier90: A Tool for Obtaining Maximally |
             |         Localised Wannier Functions"              |
             |        A. A. Mostofi, J. R. Yates, Y.-S. Lee,     |
             |        I. Souza, D. Vanderbilt and N. Marzari     |
             |        Comput. Phys. Commun. 178, 685 (2008)      |
             |                                                   |
             |  in any publications arising from the use of      |
             |  this code. For the method please cite            |
             |                                                   |
             |  [ref] "Maximally Localized Generalised Wannier   |
             |         Functions for Composite Energy Bands"     |
             |         N. Marzari and D. Vanderbilt              |
             |         Phys. Rev. B 56 12847 (1997)              |
             |                                                   |
             |  [ref] "Maximally Localized Wannier Functions     |
             |         for Entangled Energy Bands"               |
             |         I. Souza, N. Marzari and D. Vanderbilt    |
             |         Phys. Rev. B 65 035109 (2001)             |
             |                                                   |
             |                                                   |
             | Copyright (c) 1996-2010                           |
             |        A. A. Mostofi, J. R. Yates, Y.-S. Lee,     |
             |        I. Souza, D. Vanderbilt and N. Marzari     |
             |                                                   |
             |        Release: 1.2        24th Jan 2010          |
             |                                                   |
             | This program is free software; you can            |
             | redistribute it and/or modify it under the terms  |
             | of the GNU General Public License as published by |
             | the Free Software Foundation; either version 2 of |
             | the License, or (at your option) any later version|
             |                                                   |
             | This program is distributed in the hope that it   |
             | will be useful, but WITHOUT ANY WARRANTY; without |
             | even the implied warranty of MERCHANTABILITY or   |
             | FITNESS FOR A PARTICULAR PURPOSE. See the GNU     |
             | General Public License for more details.          |
             |                                                   |
             | You should have received a copy of the GNU General|
             | Public License along with this program; if not,   |
             | write to the Free Software Foundation, Inc.,      |
             | 675 Mass Ave, Cambridge, MA 02139, USA.           |
             |                                                   |
             +---------------------------------------------------+
             |    Execution started on  9Sep2015 at 16:48:12     |
             +---------------------------------------------------+
 
                                    ------
                                    SYSTEM
                                    ------
 
                              Lattice Vectors (Ang)
                    a_1     3.477000   0.000000   0.000000
                    a_2     0.000000   6.249000   0.000000
                    a_3     0.000000   0.000000  14.018000
 
                   Unit Cell Volume:     304.57992  (Ang^3)
 
                        Reciprocal-Space Vectors (Ang^-1)
                    b_1     1.807071   0.000000   0.000000
                    b_2     0.000000   1.005471   0.000000
                    b_3     0.000000   0.000000   0.448223
  
 *----------------------------------------------------------------------------*
 |   Site       Fractional Coordinate          Cartesian Coordinate (Ang)     |
 +----------------------------------------------------------------------------+
 | W    1   0.00000   0.60062   0.76452   |    0.00000   3.75327  10.71711    |
 | W    2   0.00000   0.03980   0.27974   |    0.00000   0.24871   3.92146    |
 | W    3   0.50000   0.39938   0.26452   |    1.73850   2.49573   3.70811    |
 | W    4   0.50000   0.96020   0.77974   |    1.73850   6.00029  10.93046    |
 | Te   1   0.00000   0.85761   0.91977   |    0.00000   5.35920  12.89340    |
 | Te   2   0.50000   0.14239   0.41977   |    1.73850   0.88980   5.88440    |
 | Te   3   0.00000   0.64631   0.37564   |    0.00000   4.03879   5.26579    |
 | Te   4   0.50000   0.35369   0.87564   |    1.73850   2.21021  12.27479    |
 | Te   5   0.00000   0.29845   0.12435   |    0.00000   1.86501   1.74321    |
 | Te   6   0.50000   0.70155   0.62435   |    1.73850   4.38399   8.75221    |
 | Te   7   0.00000   0.20722   0.66839   |    0.00000   1.29492   9.36956    |
 | Te   8   0.50000   0.79278   0.16839   |    1.73850   4.95408   2.36056    |
 *----------------------------------------------------------------------------*
  
                                -----------
                                PROJECTIONS
                                -----------
  
 +----------------------------------------------------------------------------+
 |     Frac. Coord.   l mr  r        z-axis               x-axis          Z/a |
 +----------------------------------------------------------------------------+
 |  0.00  0.60  0.76  0  1  1  0.000  0.000  1.000  1.000  0.000  0.000   1.0 |
 |  0.00  0.60  0.76  2  1  1  0.000  0.000  1.000  1.000  0.000  0.000   1.0 |
 |  0.00  0.60  0.76  2  2  1  0.000  0.000  1.000  1.000  0.000  0.000   1.0 |
 |  0.00  0.60  0.76  2  3  1  0.000  0.000  1.000  1.000  0.000  0.000   1.0 |
 |  0.00  0.60  0.76  2  4  1  0.000  0.000  1.000  1.000  0.000  0.000   1.0 |
 |  0.00  0.60  0.76  2  5  1  0.000  0.000  1.000  1.000  0.000  0.000   1.0 |
 |  0.00  0.04  0.28  0  1  1  0.000  0.000  1.000  1.000  0.000  0.000   1.0 |
 |  0.00  0.04  0.28  2  1  1  0.000  0.000  1.000  1.000  0.000  0.000   1.0 |
 |  0.00  0.04  0.28  2  2  1  0.000  0.000  1.000  1.000  0.000  0.000   1.0 |
 |  0.00  0.04  0.28  2  3  1  0.000  0.000  1.000  1.000  0.000  0.000   1.0 |
 |  0.00  0.04  0.28  2  4  1  0.000  0.000  1.000  1.000  0.000  0.000   1.0 |
 |  0.00  0.04  0.28  2  5  1  0.000  0.000  1.000  1.000  0.000  0.000   1.0 |
 |  0.50  0.40  0.26  0  1  1  0.000  0.000  1.000  1.000  0.000  0.000   1.0 |
 |  0.50  0.40  0.26  2  1  1  0.000  0.000  1.000  1.000  0.000  0.000   1.0 |
 |  0.50  0.40  0.26  2  2  1  0.000  0.000  1.000  1.000  0.000  0.000   1.0 |
 |  0.50  0.40  0.26  2  3  1  0.000  0.000  1.000  1.000  0.000  0.000   1.0 |
 |  0.50  0.40  0.26  2  4  1  0.000  0.000  1.000  1.000  0.000  0.000   1.0 |
 |  0.50  0.40  0.26  2  5  1  0.000  0.000  1.000  1.000  0.000  0.000   1.0 |
 |  0.50  0.96  0.78  0  1  1  0.000  0.000  1.000  1.000  0.000  0.000   1.0 |
 |  0.50  0.96  0.78  2  1  1  0.000  0.000  1.000  1.000  0.000  0.000   1.0 |
 |  0.50  0.96  0.78  2  2  1  0.000  0.000  1.000  1.000  0.000  0.000   1.0 |
 |  0.50  0.96  0.78  2  3  1  0.000  0.000  1.000  1.000  0.000  0.000   1.0 |
 |  0.50  0.96  0.78  2  4  1  0.000  0.000  1.000  1.000  0.000  0.000   1.0 |
 |  0.50  0.96  0.78  2  5  1  0.000  0.000  1.000  1.000  0.000  0.000   1.0 |
 |  0.00  0.86  0.92  1  1  1  0.000  0.000  1.000  1.000  0.000  0.000   1.0 |
 |  0.00  0.86  0.92  1  2  1  0.000  0.000  1.000  1.000  0.000  0.000   1.0 |
 |  0.00  0.86  0.92  1  3  1  0.000  0.000  1.000  1.000  0.000  0.000   1.0 |
 |  0.50  0.14  0.42  1  1  1  0.000  0.000  1.000  1.000  0.000  0.000   1.0 |
 |  0.50  0.14  0.42  1  2  1  0.000  0.000  1.000  1.000  0.000  0.000   1.0 |
 |  0.50  0.14  0.42  1  3  1  0.000  0.000  1.000  1.000  0.000  0.000   1.0 |
 |  0.00  0.65  0.38  1  1  1  0.000  0.000  1.000  1.000  0.000  0.000   1.0 |
 |  0.00  0.65  0.38  1  2  1  0.000  0.000  1.000  1.000  0.000  0.000   1.0 |
 |  0.00  0.65  0.38  1  3  1  0.000  0.000  1.000  1.000  0.000  0.000   1.0 |
 |  0.50  0.35  0.88  1  1  1  0.000  0.000  1.000  1.000  0.000  0.000   1.0 |
 |  0.50  0.35  0.88  1  2  1  0.000  0.000  1.000  1.000  0.000  0.000   1.0 |
 |  0.50  0.35  0.88  1  3  1  0.000  0.000  1.000  1.000  0.000  0.000   1.0 |
 |  0.00  0.30  0.12  1  1  1  0.000  0.000  1.000  1.000  0.000  0.000   1.0 |
 |  0.00  0.30  0.12  1  2  1  0.000  0.000  1.000  1.000  0.000  0.000   1.0 |
 |  0.00  0.30  0.12  1  3  1  0.000  0.000  1.000  1.000  0.000  0.000   1.0 |
 |  0.50  0.70  0.62  1  1  1  0.000  0.000  1.000  1.000  0.000  0.000   1.0 |
 |  0.50  0.70  0.62  1  2  1  0.000  0.000  1.000  1.000  0.000  0.000   1.0 |
 |  0.50  0.70  0.62  1  3  1  0.000  0.000  1.000  1.000  0.000  0.000   1.0 |
 |  0.00  0.21  0.67  1  1  1  0.000  0.000  1.000  1.000  0.000  0.000   1.0 |
 |  0.00  0.21  0.67  1  2  1  0.000  0.000  1.000  1.000  0.000  0.000   1.0 |
 |  0.00  0.21  0.67  1  3  1  0.000  0.000  1.000  1.000  0.000  0.000   1.0 |
 |  0.50  0.79  0.17  1  1  1  0.000  0.000  1.000  1.000  0.000  0.000   1.0 |
 |  0.50  0.79  0.17  1  2  1  0.000  0.000  1.000  1.000  0.000  0.000   1.0 |
 |  0.50  0.79  0.17  1  3  1  0.000  0.000  1.000  1.000  0.000  0.000   1.0 |
 +----------------------------------------------------------------------------+
  
                                ------------
                                K-POINT GRID
                                ------------
  
             Grid size =  8 x  6 x  4      Total points =  192
  
 *----------------------------------------------------------------------------*
 | k-point      Fractional Coordinate        Cartesian Coordinate (Ang^-1)    |
 +----------------------------------------------------------------------------+
 |     1    0.00000   0.00000   0.00000   |    0.00000   0.00000   0.00000    |
 |     2    0.12500   0.00000   0.00000   |    0.22588   0.00000   0.00000    |
 |     3    0.25000   0.00000   0.00000   |    0.45177   0.00000   0.00000    |
 |     4    0.37500   0.00000   0.00000   |    0.67765   0.00000   0.00000    |
 |     5    0.50000   0.00000   0.00000   |    0.90354   0.00000   0.00000    |
 |     6   -0.37500   0.00000   0.00000   |   -0.67765   0.00000   0.00000    |
 |     7   -0.25000   0.00000   0.00000   |   -0.45177   0.00000   0.00000    |
 |     8   -0.12500   0.00000   0.00000   |   -0.22588   0.00000   0.00000    |
 |     9    0.00000   0.16667   0.00000   |    0.00000   0.16758   0.00000    |
 |    10    0.12500   0.16667   0.00000   |    0.22588   0.16758   0.00000    |
 |    11    0.25000   0.16667   0.00000   |    0.45177   0.16758   0.00000    |
 |    12    0.37500   0.16667   0.00000   |    0.67765   0.16758   0.00000    |
 |    13    0.50000   0.16667   0.00000   |    0.90354   0.16758   0.00000    |
 |    14   -0.37500   0.16667   0.00000   |   -0.67765   0.16758   0.00000    |
 |    15   -0.25000   0.16667   0.00000   |   -0.45177   0.16758   0.00000    |
 |    16   -0.12500   0.16667   0.00000   |   -0.22588   0.16758   0.00000    |
 |    17    0.00000   0.33333   0.00000   |    0.00000   0.33516   0.00000    |
 |    18    0.12500   0.33333   0.00000   |    0.22588   0.33516   0.00000    |
 |    19    0.25000   0.33333   0.00000   |    0.45177   0.33516   0.00000    |
 |    20    0.37500   0.33333   0.00000   |    0.67765   0.33516   0.00000    |
 |    21    0.50000   0.33333   0.00000   |    0.90354   0.33516   0.00000    |
 |    22   -0.37500   0.33333   0.00000   |   -0.67765   0.33516   0.00000    |
 |    23   -0.25000   0.33333   0.00000   |   -0.45177   0.33516   0.00000    |
 |    24   -0.12500   0.33333   0.00000   |   -0.22588   0.33516   0.00000    |
 |    25    0.00000   0.50000   0.00000   |    0.00000   0.50274   0.00000    |
 |    26    0.12500   0.50000   0.00000   |    0.22588   0.50274   0.00000    |
 |    27    0.25000   0.50000   0.00000   |    0.45177   0.50274   0.00000    |
 |    28    0.37500   0.50000   0.00000   |    0.67765   0.50274   0.00000    |
 |    29    0.50000   0.50000   0.00000   |    0.90354   0.50274   0.00000    |
 |    30   -0.37500   0.50000   0.00000   |   -0.67765   0.50274   0.00000    |
 |    31   -0.25000   0.50000   0.00000   |   -0.45177   0.50274   0.00000    |
 |    32   -0.12500   0.50000   0.00000   |   -0.22588   0.50274   0.00000    |
 |    33    0.00000  -0.33333   0.00000   |    0.00000  -0.33516   0.00000    |
 |    34    0.12500  -0.33333   0.00000   |    0.22588  -0.33516   0.00000    |
 |    35    0.25000  -0.33333   0.00000   |    0.45177  -0.33516   0.00000    |
 |    36    0.37500  -0.33333   0.00000   |    0.67765  -0.33516   0.00000    |
 |    37    0.50000  -0.33333   0.00000   |    0.90354  -0.33516   0.00000    |
 |    38   -0.37500  -0.33333   0.00000   |   -0.67765  -0.33516   0.00000    |
 |    39   -0.25000  -0.33333   0.00000   |   -0.45177  -0.33516   0.00000    |
 |    40   -0.12500  -0.33333   0.00000   |   -0.22588  -0.33516   0.00000    |
 |    41    0.00000  -0.16667   0.00000   |    0.00000  -0.16758   0.00000    |
 |    42    0.12500  -0.16667   0.00000   |    0.22588  -0.16758   0.00000    |
 |    43    0.25000  -0.16667   0.00000   |    0.45177  -0.16758   0.00000    |
 |    44    0.37500  -0.16667   0.00000   |    0.67765  -0.16758   0.00000    |
 |    45    0.50000  -0.16667   0.00000   |    0.90354  -0.16758   0.00000    |
 |    46   -0.37500  -0.16667   0.00000   |   -0.67765  -0.16758   0.00000    |
 |    47   -0.25000  -0.16667   0.00000   |   -0.45177  -0.16758   0.00000    |
 |    48   -0.12500  -0.16667   0.00000   |   -0.22588  -0.16758   0.00000    |
 |    49    0.00000   0.00000   0.25000   |    0.00000   0.00000   0.11206    |
 |    50    0.12500   0.00000   0.25000   |    0.22588   0.00000   0.11206    |
 |    51    0.25000   0.00000   0.25000   |    0.45177   0.00000   0.11206    |
 |    52    0.37500   0.00000   0.25000   |    0.67765   0.00000   0.11206    |
 |    53    0.50000   0.00000   0.25000   |    0.90354   0.00000   0.11206    |
 |    54   -0.37500   0.00000   0.25000   |   -0.67765   0.00000   0.11206    |
 |    55   -0.25000   0.00000   0.25000   |   -0.45177   0.00000   0.11206    |
 |    56   -0.12500   0.00000   0.25000   |   -0.22588   0.00000   0.11206    |
 |    57    0.00000   0.16667   0.25000   |    0.00000   0.16758   0.11206    |
 |    58    0.12500   0.16667   0.25000   |    0.22588   0.16758   0.11206    |
 |    59    0.25000   0.16667   0.25000   |    0.45177   0.16758   0.11206    |
 |    60    0.37500   0.16667   0.25000   |    0.67765   0.16758   0.11206    |
 |    61    0.50000   0.16667   0.25000   |    0.90354   0.16758   0.11206    |
 |    62   -0.37500   0.16667   0.25000   |   -0.67765   0.16758   0.11206    |
 |    63   -0.25000   0.16667   0.25000   |   -0.45177   0.16758   0.11206    |
 |    64   -0.12500   0.16667   0.25000   |   -0.22588   0.16758   0.11206    |
 |    65    0.00000   0.33333   0.25000   |    0.00000   0.33516   0.11206    |
 |    66    0.12500   0.33333   0.25000   |    0.22588   0.33516   0.11206    |
 |    67    0.25000   0.33333   0.25000   |    0.45177   0.33516   0.11206    |
 |    68    0.37500   0.33333   0.25000   |    0.67765   0.33516   0.11206    |
 |    69    0.50000   0.33333   0.25000   |    0.90354   0.33516   0.11206    |
 |    70   -0.37500   0.33333   0.25000   |   -0.67765   0.33516   0.11206    |
 |    71   -0.25000   0.33333   0.25000   |   -0.45177   0.33516   0.11206    |
 |    72   -0.12500   0.33333   0.25000   |   -0.22588   0.33516   0.11206    |
 |    73    0.00000   0.50000   0.25000   |    0.00000   0.50274   0.11206    |
 |    74    0.12500   0.50000   0.25000   |    0.22588   0.50274   0.11206    |
 |    75    0.25000   0.50000   0.25000   |    0.45177   0.50274   0.11206    |
 |    76    0.37500   0.50000   0.25000   |    0.67765   0.50274   0.11206    |
 |    77    0.50000   0.50000   0.25000   |    0.90354   0.50274   0.11206    |
 |    78   -0.37500   0.50000   0.25000   |   -0.67765   0.50274   0.11206    |
 |    79   -0.25000   0.50000   0.25000   |   -0.45177   0.50274   0.11206    |
 |    80   -0.12500   0.50000   0.25000   |   -0.22588   0.50274   0.11206    |
 |    81    0.00000  -0.33333   0.25000   |    0.00000  -0.33516   0.11206    |
 |    82    0.12500  -0.33333   0.25000   |    0.22588  -0.33516   0.11206    |
 |    83    0.25000  -0.33333   0.25000   |    0.45177  -0.33516   0.11206    |
 |    84    0.37500  -0.33333   0.25000   |    0.67765  -0.33516   0.11206    |
 |    85    0.50000  -0.33333   0.25000   |    0.90354  -0.33516   0.11206    |
 |    86   -0.37500  -0.33333   0.25000   |   -0.67765  -0.33516   0.11206    |
 |    87   -0.25000  -0.33333   0.25000   |   -0.45177  -0.33516   0.11206    |
 |    88   -0.12500  -0.33333   0.25000   |   -0.22588  -0.33516   0.11206    |
 |    89    0.00000  -0.16667   0.25000   |    0.00000  -0.16758   0.11206    |
 |    90    0.12500  -0.16667   0.25000   |    0.22588  -0.16758   0.11206    |
 |    91    0.25000  -0.16667   0.25000   |    0.45177  -0.16758   0.11206    |
 |    92    0.37500  -0.16667   0.25000   |    0.67765  -0.16758   0.11206    |
 |    93    0.50000  -0.16667   0.25000   |    0.90354  -0.16758   0.11206    |
 |    94   -0.37500  -0.16667   0.25000   |   -0.67765  -0.16758   0.11206    |
 |    95   -0.25000  -0.16667   0.25000   |   -0.45177  -0.16758   0.11206    |
 |    96   -0.12500  -0.16667   0.25000   |   -0.22588  -0.16758   0.11206    |
 |    97    0.00000   0.00000   0.50000   |    0.00000   0.00000   0.22411    |
 |    98    0.12500   0.00000   0.50000   |    0.22588   0.00000   0.22411    |
 |    99    0.25000   0.00000   0.50000   |    0.45177   0.00000   0.22411    |
 |   100    0.37500   0.00000   0.50000   |    0.67765   0.00000   0.22411    |
 |   101    0.50000   0.00000   0.50000   |    0.90354   0.00000   0.22411    |
 |   102   -0.37500   0.00000   0.50000   |   -0.67765   0.00000   0.22411    |
 |   103   -0.25000   0.00000   0.50000   |   -0.45177   0.00000   0.22411    |
 |   104   -0.12500   0.00000   0.50000   |   -0.22588   0.00000   0.22411    |
 |   105    0.00000   0.16667   0.50000   |    0.00000   0.16758   0.22411    |
 |   106    0.12500   0.16667   0.50000   |    0.22588   0.16758   0.22411    |
 |   107    0.25000   0.16667   0.50000   |    0.45177   0.16758   0.22411    |
 |   108    0.37500   0.16667   0.50000   |    0.67765   0.16758   0.22411    |
 |   109    0.50000   0.16667   0.50000   |    0.90354   0.16758   0.22411    |
 |   110   -0.37500   0.16667   0.50000   |   -0.67765   0.16758   0.22411    |
 |   111   -0.25000   0.16667   0.50000   |   -0.45177   0.16758   0.22411    |
 |   112   -0.12500   0.16667   0.50000   |   -0.22588   0.16758   0.22411    |
 |   113    0.00000   0.33333   0.50000   |    0.00000   0.33516   0.22411    |
 |   114    0.12500   0.33333   0.50000   |    0.22588   0.33516   0.22411    |
 |   115    0.25000   0.33333   0.50000   |    0.45177   0.33516   0.22411    |
 |   116    0.37500   0.33333   0.50000   |    0.67765   0.33516   0.22411    |
 |   117    0.50000   0.33333   0.50000   |    0.90354   0.33516   0.22411    |
 |   118   -0.37500   0.33333   0.50000   |   -0.67765   0.33516   0.22411    |
 |   119   -0.25000   0.33333   0.50000   |   -0.45177   0.33516   0.22411    |
 |   120   -0.12500   0.33333   0.50000   |   -0.22588   0.33516   0.22411    |
 |   121    0.00000   0.50000   0.50000   |    0.00000   0.50274   0.22411    |
 |   122    0.12500   0.50000   0.50000   |    0.22588   0.50274   0.22411    |
 |   123    0.25000   0.50000   0.50000   |    0.45177   0.50274   0.22411    |
 |   124    0.37500   0.50000   0.50000   |    0.67765   0.50274   0.22411    |
 |   125    0.50000   0.50000   0.50000   |    0.90354   0.50274   0.22411    |
 |   126   -0.37500   0.50000   0.50000   |   -0.67765   0.50274   0.22411    |
 |   127   -0.25000   0.50000   0.50000   |   -0.45177   0.50274   0.22411    |
 |   128   -0.12500   0.50000   0.50000   |   -0.22588   0.50274   0.22411    |
 |   129    0.00000  -0.33333   0.50000   |    0.00000  -0.33516   0.22411    |
 |   130    0.12500  -0.33333   0.50000   |    0.22588  -0.33516   0.22411    |
 |   131    0.25000  -0.33333   0.50000   |    0.45177  -0.33516   0.22411    |
 |   132    0.37500  -0.33333   0.50000   |    0.67765  -0.33516   0.22411    |
 |   133    0.50000  -0.33333   0.50000   |    0.90354  -0.33516   0.22411    |
 |   134   -0.37500  -0.33333   0.50000   |   -0.67765  -0.33516   0.22411    |
 |   135   -0.25000  -0.33333   0.50000   |   -0.45177  -0.33516   0.22411    |
 |   136   -0.12500  -0.33333   0.50000   |   -0.22588  -0.33516   0.22411    |
 |   137    0.00000  -0.16667   0.50000   |    0.00000  -0.16758   0.22411    |
 |   138    0.12500  -0.16667   0.50000   |    0.22588  -0.16758   0.22411    |
 |   139    0.25000  -0.16667   0.50000   |    0.45177  -0.16758   0.22411    |
 |   140    0.37500  -0.16667   0.50000   |    0.67765  -0.16758   0.22411    |
 |   141    0.50000  -0.16667   0.50000   |    0.90354  -0.16758   0.22411    |
 |   142   -0.37500  -0.16667   0.50000   |   -0.67765  -0.16758   0.22411    |
 |   143   -0.25000  -0.16667   0.50000   |   -0.45177  -0.16758   0.22411    |
 |   144   -0.12500  -0.16667   0.50000   |   -0.22588  -0.16758   0.22411    |
 |   145    0.00000   0.00000  -0.25000   |    0.00000   0.00000  -0.11206    |
 |   146    0.12500   0.00000  -0.25000   |    0.22588   0.00000  -0.11206    |
 |   147    0.25000   0.00000  -0.25000   |    0.45177   0.00000  -0.11206    |
 |   148    0.37500   0.00000  -0.25000   |    0.67765   0.00000  -0.11206    |
 |   149    0.50000   0.00000  -0.25000   |    0.90354   0.00000  -0.11206    |
 |   150   -0.37500   0.00000  -0.25000   |   -0.67765   0.00000  -0.11206    |
 |   151   -0.25000   0.00000  -0.25000   |   -0.45177   0.00000  -0.11206    |
 |   152   -0.12500   0.00000  -0.25000   |   -0.22588   0.00000  -0.11206    |
 |   153    0.00000   0.16667  -0.25000   |    0.00000   0.16758  -0.11206    |
 |   154    0.12500   0.16667  -0.25000   |    0.22588   0.16758  -0.11206    |
 |   155    0.25000   0.16667  -0.25000   |    0.45177   0.16758  -0.11206    |
 |   156    0.37500   0.16667  -0.25000   |    0.67765   0.16758  -0.11206    |
 |   157    0.50000   0.16667  -0.25000   |    0.90354   0.16758  -0.11206    |
 |   158   -0.37500   0.16667  -0.25000   |   -0.67765   0.16758  -0.11206    |
 |   159   -0.25000   0.16667  -0.25000   |   -0.45177   0.16758  -0.11206    |
 |   160   -0.12500   0.16667  -0.25000   |   -0.22588   0.16758  -0.11206    |
 |   161    0.00000   0.33333  -0.25000   |    0.00000   0.33516  -0.11206    |
 |   162    0.12500   0.33333  -0.25000   |    0.22588   0.33516  -0.11206    |
 |   163    0.25000   0.33333  -0.25000   |    0.45177   0.33516  -0.11206    |
 |   164    0.37500   0.33333  -0.25000   |    0.67765   0.33516  -0.11206    |
 |   165    0.50000   0.33333  -0.25000   |    0.90354   0.33516  -0.11206    |
 |   166   -0.37500   0.33333  -0.25000   |   -0.67765   0.33516  -0.11206    |
 |   167   -0.25000   0.33333  -0.25000   |   -0.45177   0.33516  -0.11206    |
 |   168   -0.12500   0.33333  -0.25000   |   -0.22588   0.33516  -0.11206    |
 |   169    0.00000   0.50000  -0.25000   |    0.00000   0.50274  -0.11206    |
 |   170    0.12500   0.50000  -0.25000   |    0.22588   0.50274  -0.11206    |
 |   171    0.25000   0.50000  -0.25000   |    0.45177   0.50274  -0.11206    |
 |   172    0.37500   0.50000  -0.25000   |    0.67765   0.50274  -0.11206    |
 |   173    0.50000   0.50000  -0.25000   |    0.90354   0.50274  -0.11206    |
 |   174   -0.37500   0.50000  -0.25000   |   -0.67765   0.50274  -0.11206    |
 |   175   -0.25000   0.50000  -0.25000   |   -0.45177   0.50274  -0.11206    |
 |   176   -0.12500   0.50000  -0.25000   |   -0.22588   0.50274  -0.11206    |
 |   177    0.00000  -0.33333  -0.25000   |    0.00000  -0.33516  -0.11206    |
 |   178    0.12500  -0.33333  -0.25000   |    0.22588  -0.33516  -0.11206    |
 |   179    0.25000  -0.33333  -0.25000   |    0.45177  -0.33516  -0.11206    |
 |   180    0.37500  -0.33333  -0.25000   |    0.67765  -0.33516  -0.11206    |
 |   181    0.50000  -0.33333  -0.25000   |    0.90354  -0.33516  -0.11206    |
 |   182   -0.37500  -0.33333  -0.25000   |   -0.67765  -0.33516  -0.11206    |
 |   183   -0.25000  -0.33333  -0.25000   |   -0.45177  -0.33516  -0.11206    |
 |   184   -0.12500  -0.33333  -0.25000   |   -0.22588  -0.33516  -0.11206    |
 |   185    0.00000  -0.16667  -0.25000   |    0.00000  -0.16758  -0.11206    |
 |   186    0.12500  -0.16667  -0.25000   |    0.22588  -0.16758  -0.11206    |
 |   187    0.25000  -0.16667  -0.25000   |    0.45177  -0.16758  -0.11206    |
 |   188    0.37500  -0.16667  -0.25000   |    0.67765  -0.16758  -0.11206    |
 |   189    0.50000  -0.16667  -0.25000   |    0.90354  -0.16758  -0.11206    |
 |   190   -0.37500  -0.16667  -0.25000   |   -0.67765  -0.16758  -0.11206    |
 |   191   -0.25000  -0.16667  -0.25000   |   -0.45177  -0.16758  -0.11206    |
 |   192   -0.12500  -0.16667  -0.25000   |   -0.22588  -0.16758  -0.11206    |
 *----------------------------------------------------------------------------*
  
  
 *---------------------------------- MAIN ------------------------------------*
 |  Number of Wannier Functions               :                96             |
 |  Number of input Bloch states              :               192             |
 |  Output verbosity (1=low, 5=high)          :                 2             |
 |  Timing Level (1=low, 5=high)              :                 1             |
 |  Optimisation (0=memory, 3=speed)          :                 3             |
 |  Length Unit                               :               Ang             |
 |  Post-processing setup (write *.nnkp)      :                 F             |
 |  Using Gamma-only branch of algorithms     :                 F             |
 *----------------------------------------------------------------------------*
 *------------------------------- WANNIERISE ---------------------------------*
 |  Total number of iterations                :               100             |
 |  Number of CG steps before reset           :                 5             |
 |  Trial step length for line search         :             2.000             |
 |  Convergence tolerence                     :         0.100E-09             |
 |  Convergence window                        :                -1             |
 |  Iterations between writing output         :                 1             |
 |  Iterations between backing up to disk     :               100             |
 |  Write r^2_nm to file                      :                 F             |
 |  Write xyz WF centres to file              :                 F             |
 |  Use guiding centre to control phases      :                 F             |
 *----------------------------------------------------------------------------*
 *------------------------------- DISENTANGLE --------------------------------*
 |  Using band disentanglement                :                 T             |
 |  Total number of iterations                :              1000             |
 |  Mixing ratio                              :             0.500             |
 |  Convergence tolerence                     :         1.000E-10             |
 |  Convergence window                        :                 3             |
 *----------------------------------------------------------------------------*
 *-------------------------------- PLOTTING ----------------------------------*
 |  Plotting interpolated bandstructure       :                 T             |
 |   Number of K-path sections                :                 9             |
 |   Divisions along first K-path section     :               100             |
 |   Output format                            :           gnuplot             |
 |   Output mode                              :               s-k             |
 *----------------------------------------------------------------------------*
 |   K-space path sections:                                                   |
 |    From:  G    0.000  0.000  0.000     To:  Y    0.000  0.500  0.000       |
 |    From:  Y    0.000  0.500  0.000     To:  S    0.500  0.500  0.000       |
 |    From:  S    0.500  0.500  0.000     To:  X    0.500  0.000  0.000       |
 |    From:  X    0.500  0.000  0.000     To:  G    0.000  0.000  0.000       |
 |    From:  G    0.000  0.000  0.000     To:  Z    0.000  0.000  0.500       |
 |    From:  Z    0.000  0.000  0.500     To:  T    0.000  0.500  0.500       |
 |    From:  T    0.000  0.500  0.500     To:  R    0.500  0.500  0.500       |
 |    From:  R    0.500  0.500  0.500     To:  U    0.500  0.000  0.500       |
 |    From:  U    0.500  0.000  0.500     To:  Z    0.000  0.000  0.500       |
 *----------------------------------------------------------------------------*
 |  Plotting Hamiltonian in WF basis          :                 T             |
 *----------------------------------------------------------------------------*
 Time to read parameters        0.048 (sec)

 *---------------------------------- K-MESH ----------------------------------*
 +----------------------------------------------------------------------------+
 |                    Distance to Nearest-Neighbour Shells                    |
 |                    ------------------------------------                    |
 |          Shell             Distance (Ang^-1)          Multiplicity         |
 |          -----             -----------------          ------------         |
 |             1                   0.112056                      2            |
 |             2                   0.167578                      2            |
 |             3                   0.201591                      4            |
 |             4                   0.224111                      2            |
 |             5                   0.225884                      2            |
 |             6                   0.252151                      4            |
 |             7                   0.279836                      4            |
 |             8                   0.281258                      4            |
 |             9                   0.302758                      8            |
 |            10                   0.318197                      4            |
 |            11                   0.335157                      2            |
 |            12                   0.336167                      2            |
 +----------------------------------------------------------------------------+
 | The b-vectors are chosen automatically                                     |
 | Shell:  1 w_b   39.8201014      (Ang^2)                                    |
 | Shell:  1 w_b   39.8201014      (Ang^2)                                    |
 | Shell:  2 w_b   17.8046655      (Ang^2)                                    |
 | SVD found small singular value, Rejecting this shell and trying the next   |
 | Shell:  1 w_b   39.8201014      (Ang^2)                                    |
 | Shell:  2 w_b   17.8046655      (Ang^2)                                    |
 | Shell:  3 w_b    9.7994031      (Ang^2)                                    |
 | The following shells are used:   1,  2,  5                                 |
 +----------------------------------------------------------------------------+
 |                        Shell   # Nearest-Neighbours                        |
 |                        -----   --------------------                        |
 |                          1               2                                 |
 |                          2               2                                 |
 |                          5               2                                 |
 +----------------------------------------------------------------------------+
 | Completeness relation is fully satisfied [Eq. (B1), PRB 56, 12847 (1997)]  |
 +----------------------------------------------------------------------------+
 |                  b_k Vectors (Ang^-1) and Weights (Ang^2)                  |
 |                  ----------------------------------------                  |
 |            No.         b_k(x)      b_k(y)      b_k(z)        w_b           |
 |            ---        --------------------------------     --------        |
 |             1         0.000000    0.000000    0.112056    39.820101        |
 |             2         0.000000    0.000000   -0.112056    39.820101        |
 |             3         0.000000    0.167578    0.000000    17.804665        |
 |             4         0.000000   -0.167578    0.000000    17.804665        |
 |             5         0.225884    0.000000    0.000000     9.799403        |
 |             6        -0.225884    0.000000    0.000000     9.799403        |
 +----------------------------------------------------------------------------+
 |                           b_k Directions (Ang^-1)                          |
 |                           -----------------------                          |
 |            No.           x           y           z                         |
 |            ---        --------------------------------                     |
 |             1         0.000000    0.000000    0.112056                     |
 |             2         0.000000    0.167578    0.000000                     |
 |             3         0.225884    0.000000    0.000000                     |
 +----------------------------------------------------------------------------+
  
 *============================================================================*
 |                              MEMORY ESTIMATE                               |
 |         Maximum RAM allocated during each phase of the calculation         |
 *============================================================================*
 |                        Disentanglement         1001.55 Mb                  |
 |                            Wannierise:          491.34 Mb                  |
 |                                                                            |
 |   N.B. by setting optimisation=0 memory usage will be reduced to:          |
 |                        Disentanglement         1001.55 Mb                  |
 |                            Wannierise:          329.34 Mb                  |
 |   However, this will result in more i/o and slow down the calculation      |
 *----------------------------------------------------------------------------*
  
 Starting a new Wannier90 calculation ...

 Time to get kmesh              0.109 (sec)

 Reading overlaps from wannier90.mmn    : File generated by VASP: WTe2

 Reading projections from wannier90.amn : File generated by VASP: WTe2

 Time to read overlaps         50.047 (sec)

 *------------------------------- DISENTANGLE --------------------------------*
 +----------------------------------------------------------------------------+
 |                              Energy  Windows                               |
 |                              ---------------                               |
 |                   Outer:   -1.00000  to   16.00000  (eV)                   |
 |                   Inner:    6.00000  to    8.00000  (eV)                   |
 +----------------------------------------------------------------------------+
 |                        K-points with Frozen States                         |
 |                        ---------------------------                         |
 |     1     2     3     4     6     7     8     9    10    11    12    14    |
 |    15    16    17    18    19    20    21    22    23    24    25    26    |
 |    27    28    29    30    31    32    33    34    35    36    37    38    |
 |    39    40    41    42    43    44    46    47    48    49    50    51    |
 |    52    54    55    56    57    58    59    60    62    63    64    65    |
 |    66    67    68    69    70    71    72    73    74    75    76    77    |
 |    78    79    80    81    82    83    84    85    86    87    88    89    |
 |    90    91    92    94    95    96    97    98    99   100   102   103    |
 |   104   105   106   107   108   110   111   112   113   114   115   116    |
 |   117   118   119   120   121   122   123   124   125   126   127   128    |
 |   129   130   131   132   133   134   135   136   137   138   139   140    |
 |   142   143   144   145   146   147   148   150   151   152   153   154    |
 |   155   156   158   159   160   161   162   163   164   165   166   167    |
 |   168   169   170   171   172   173   174   175   176   177   178   179    |
 |   180   181   182   183   184   185   186   187   188   190   191   192    |
 +----------------------------------------------------------------------------+
   Number of target bands to extract:   96
 +----------------------------------------------------------------------------+
 |                                  Windows                                   |
 |                                  -------                                   |
 |               K-point      Ndimwin     Ndimfroz    Nfirstwin               |
 |               ----------------------------------------------               |
 |                   1          118           16          17                  |
 |                   2          121           18          17                  |
 |                   3          118           12          17                  |
 |                   4          122            6          17                  |
 |                   5          124            0          17                  |
 |                   6          122            6          17                  |
 |                   7          118           12          17                  |
 |                   8          121           18          17                  |
 |                   9          120           18          17                  |
 |                  10          121           18          17                  |
 |                  11          118           12          17                  |
 |                  12          123            6          17                  |
 |                  13          128            0          17                  |
 |                  14          123            6          17                  |
 |                  15          118           12          17                  |
 |                  16          121           18          17                  |
 |                  17          122           18          17                  |
 |                  18          122           16          17                  |
 |                  19          120           12          17                  |
 |                  20          124            4          17                  |
 |                  21          128            8          17                  |
 |                  22          124            4          17                  |
 |                  23          120           12          17                  |
 |                  24          122           16          17                  |
 |                  25          120           18          17                  |
 |                  26          121           14          17                  |
 |                  27          124           12          17                  |
 |                  28          124            8          17                  |
 |                  29          128            8          17                  |
 |                  30          124            8          17                  |
 |                  31          124           12          17                  |
 |                  32          121           14          17                  |
 |                  33          122           18          17                  |
 |                  34          122           16          17                  |
 |                  35          120           12          17                  |
 |                  36          124            4          17                  |
 |                  37          128            8          17                  |
 |                  38          124            4          17                  |
 |                  39          120           12          17                  |
 |                  40          122           16          17                  |
 |                  41          120           18          17                  |
 |                  42          121           18          17                  |
 |                  43          118           12          17                  |
 |                  44          123            6          17                  |
 |                  45          128            0          17                  |
 |                  46          123            6          17                  |
 |                  47          118           12          17                  |
 |                  48          121           18          17                  |
 |                  49          118           16          17                  |
 |                  50          120           20          17                  |
 |                  51          120           12          17                  |
 |                  52          120            6          17                  |
 |                  53          122            0          17                  |
 |                  54          120            6          17                  |
 |                  55          120           12          17                  |
 |                  56          120           20          17                  |
 |                  57          120           18          17                  |
 |                  58          120           18          17                  |
 |                  59          118           12          17                  |
 |                  60          124            4          17                  |
 |                  61          124            0          17                  |
 |                  62          124            4          17                  |
 |                  63          118           12          17                  |
 |                  64          120           18          17                  |
 |                  65          120           20          17                  |
 |                  66          122           16          17                  |
 |                  67          120           12          17                  |
 |                  68          126            4          17                  |
 |                  69          124            7          17                  |
 |                  70          126            4          17                  |
 |                  71          120           12          17                  |
 |                  72          122           16          17                  |
 |                  73          120           16          17                  |
 |                  74          122           15          17                  |
 |                  75          124           12          17                  |
 |                  76          124            8          17                  |
 |                  77          124            8          17                  |
 |                  78          124            8          17                  |
 |                  79          124           12          17                  |
 |                  80          122           15          17                  |
 |                  81          120           20          17                  |
 |                  82          122           16          17                  |
 |                  83          120           12          17                  |
 |                  84          126            4          17                  |
 |                  85          124            7          17                  |
 |                  86          126            4          17                  |
 |                  87          120           12          17                  |
 |                  88          122           16          17                  |
 |                  89          120           18          17                  |
 |                  90          120           18          17                  |
 |                  91          118           12          17                  |
 |                  92          124            4          17                  |
 |                  93          124            0          17                  |
 |                  94          124            4          17                  |
 |                  95          118           12          17                  |
 |                  96          120           18          17                  |
 |                  97          120           16          17                  |
 |                  98          120           20          17                  |
 |                  99          118           12          17                  |
 |                 100          120            4          17                  |
 |                 101          122            0          17                  |
 |                 102          120            4          17                  |
 |                 103          118           12          17                  |
 |                 104          120           20          17                  |
 |                 105          120           16          17                  |
 |                 106          120           18          17                  |
 |                 107          116           12          17                  |
 |                 108          124            4          17                  |
 |                 109          124            0          17                  |
 |                 110          124            4          17                  |
 |                 111          116           12          17                  |
 |                 112          120           18          17                  |
 |                 113          118           20          17                  |
 |                 114          122           16          17                  |
 |                 115          120           12          17                  |
 |                 116          124            4          17                  |
 |                 117          124            6          17                  |
 |                 118          124            4          17                  |
 |                 119          120           12          17                  |
 |                 120          122           16          17                  |
 |                 121          120           16          17                  |
 |                 122          122           16          17                  |
 |                 123          124           12          17                  |
 |                 124          124            8          17                  |
 |                 125          124            8          17                  |
 |                 126          124            8          17                  |
 |                 127          124           12          17                  |
 |                 128          122           16          17                  |
 |                 129          118           20          17                  |
 |                 130          122           16          17                  |
 |                 131          120           12          17                  |
 |                 132          124            4          17                  |
 |                 133          124            6          17                  |
 |                 134          124            4          17                  |
 |                 135          120           12          17                  |
 |                 136          122           16          17                  |
 |                 137          120           16          17                  |
 |                 138          120           18          17                  |
 |                 139          116           12          17                  |
 |                 140          124            4          17                  |
 |                 141          124            0          17                  |
 |                 142          124            4          17                  |
 |                 143          116           12          17                  |
 |                 144          120           18          17                  |
 |                 145          118           16          17                  |
 |                 146          120           20          17                  |
 |                 147          120           12          17                  |
 |                 148          120            6          17                  |
 |                 149          122            0          17                  |
 |                 150          120            6          17                  |
 |                 151          120           12          17                  |
 |                 152          120           20          17                  |
 |                 153          120           18          17                  |
 |                 154          120           18          17                  |
 |                 155          118           12          17                  |
 |                 156          124            4          17                  |
 |                 157          124            0          17                  |
 |                 158          124            4          17                  |
 |                 159          118           12          17                  |
 |                 160          120           18          17                  |
 |                 161          120           20          17                  |
 |                 162          122           16          17                  |
 |                 163          120           12          17                  |
 |                 164          126            4          17                  |
 |                 165          124            7          17                  |
 |                 166          126            4          17                  |
 |                 167          120           12          17                  |
 |                 168          122           16          17                  |
 |                 169          120           16          17                  |
 |                 170          122           15          17                  |
 |                 171          124           12          17                  |
 |                 172          124            8          17                  |
 |                 173          124            8          17                  |
 |                 174          124            8          17                  |
 |                 175          124           12          17                  |
 |                 176          122           15          17                  |
 |                 177          120           20          17                  |
 |                 178          122           16          17                  |
 |                 179          120           12          17                  |
 |                 180          126            4          17                  |
 |                 181          124            7          17                  |
 |                 182          126            4          17                  |
 |                 183          120           12          17                  |
 |                 184          122           16          17                  |
 |                 185          120           18          17                  |
 |                 186          120           18          17                  |
 |                 187          118           12          17                  |
 |                 188          124            4          17                  |
 |                 189          124            0          17                  |
 |                 190          124            4          17                  |
 |                 191          118           12          17                  |
 |                 192          120           18          17                  |
 +----------------------------------------------------------------------------+

                   Unitarised projection of Wannier functions                  
                   ------------------------------------------                  
   A_mn = <psi_m|g_n> --> S = A.A^+ --> U = S^-1/2.A
   In dis_project... done
   Using an inner window (linner = T)
   In dis_proj_froz... done

                   Extraction of optimally-connected subspace                  
                   ------------------------------------------                  
 +---------------------------------------------------------------------+<-- DIS
 |  Iter     Omega_I(i-1)      Omega_I(i)      Delta (frac.)    Time   |<-- DIS
 +---------------------------------------------------------------------+<-- DIS
       1     283.16913299     270.96780265       4.503E-02     78.61    <-- DIS
       2     276.14977333     266.90821938       3.462E-02     92.21    <-- DIS
       3     271.07042370     264.00813198       2.675E-02    105.67    <-- DIS
       4     267.17987010     261.71296067       2.089E-02    119.14    <-- DIS
       5     264.15649316     259.84024419       1.661E-02    132.50    <-- DIS
       6     261.76000120     258.28143056       1.347E-02    145.85    <-- DIS
       7     259.82179620     256.96399902       1.112E-02    159.22    <-- DIS
       8     258.22489428     255.83700307       9.334E-03    172.57    <-- DIS
       9     256.88765532     254.86335403       7.943E-03    185.96    <-- DIS
      10     255.75228391     254.01526572       6.838E-03    199.36    <-- DIS
      11     254.77708197     253.27141952       5.945E-03    212.74    <-- DIS
      12     253.93132357     252.61512825       5.210E-03    226.13    <-- DIS
      13     253.19187598     252.03310610       4.598E-03    239.50    <-- DIS
      14     252.54095979     251.51462016       4.081E-03    252.94    <-- DIS
      15     251.96464676     251.05089002       3.640E-03    266.31    <-- DIS
      16     251.45183676     250.63465328       3.260E-03    279.86    <-- DIS
      17     250.99354842     250.25984497       2.932E-03    293.55    <-- DIS
      18     250.58241769     249.92135677       2.645E-03    306.97    <-- DIS
      19     250.21233647     249.61485340       2.394E-03    320.33    <-- DIS
      20     249.87818722     249.33663068       2.172E-03    333.84    <-- DIS
      21     249.57564454     249.08350432       1.976E-03    347.42    <-- DIS
      22     249.30102422     248.85272197       1.801E-03    360.97    <-- DIS
      23     249.05116687     248.64189279       1.646E-03    374.53    <-- DIS
      24     248.82334674     248.44893057       1.507E-03    387.87    <-- DIS
      25     248.61519952     248.27200747       1.382E-03    401.22    <-- DIS
      26     248.42466446     248.10951596       1.270E-03    414.55    <-- DIS
      27     248.24993760     247.96003742       1.169E-03    427.87    <-- DIS
      28     248.08943346     247.82231595       1.078E-03    441.17    <-- DIS
      29     247.94175359     247.69523641       9.952E-04    454.47    <-- DIS
      30     247.80566039     247.57780602       9.203E-04    467.82    <-- DIS
      31     247.68005533     247.46913863       8.523E-04    481.10    <-- DIS
      32     247.56396059     247.36844146       7.904E-04    494.45    <-- DIS
      33     247.45650349     247.27500366       7.340E-04    507.76    <-- DIS
      34     247.35690337     247.18818655       6.825E-04    521.04    <-- DIS
      35     247.26446027     247.10741517       6.355E-04    534.35    <-- DIS
      36     247.17854531     247.03217095       5.925E-04    547.67    <-- DIS
      37     247.09859231     246.96198540       5.531E-04    561.07    <-- DIS
      38     247.02409063     246.89643456       5.170E-04    574.54    <-- DIS
      39     246.95457889     246.83513416       4.839E-04    588.02    <-- DIS
      40     246.88963952     246.77773538       4.535E-04    601.48    <-- DIS
      41     246.82889401     246.72392114       4.255E-04    614.96    <-- DIS
      42     246.77199875     246.67340279       3.997E-04    628.41    <-- DIS
      43     246.71864131     246.62591722       3.760E-04    641.74    <-- DIS
      44     246.66853727     246.58122430       3.541E-04    655.09    <-- DIS
      45     246.62142735     246.53910459       3.339E-04    668.59    <-- DIS
      46     246.57707484     246.49935731       3.153E-04    681.99    <-- DIS
      47     246.53526342     246.46179855       2.981E-04    695.49    <-- DIS
      48     246.49579512     246.42625963       2.822E-04    709.07    <-- DIS
      49     246.45848858     246.39258570       2.675E-04    722.63    <-- DIS
      50     246.42317744     246.36063442       2.539E-04    736.22    <-- DIS
      51     246.38970892     246.33027479       2.413E-04    749.76    <-- DIS
      52     246.35794259     246.30138618       2.296E-04    763.34    <-- DIS
      53     246.32774919     246.27385731       2.188E-04    776.86    <-- DIS
      54     246.29900963     246.24758547       2.088E-04    790.45    <-- DIS
      55     246.27161407     246.22247572       1.996E-04    804.03    <-- DIS
      56     246.24546108     246.19844026       1.910E-04    817.60    <-- DIS
      57     246.22045690     246.17539773       1.830E-04    831.15    <-- DIS
      58     246.19651480     246.15327274       1.757E-04    844.68    <-- DIS
      59     246.17355441     246.13199528       1.688E-04    858.27    <-- DIS
      60     246.15150120     246.11150033       1.625E-04    871.81    <-- DIS
      61     246.13028600     246.09172740       1.567E-04    885.35    <-- DIS
      62     246.10984451     246.07262015       1.513E-04    898.91    <-- DIS
      63     246.09011692     246.05412607       1.463E-04    912.46    <-- DIS
      64     246.07104750     246.03619615       1.417E-04    925.99    <-- DIS
      65     246.05258430     246.01878458       1.374E-04    939.54    <-- DIS
      66     246.03467883     246.00184854       1.335E-04    953.09    <-- DIS
      67     246.01728575     245.98534789       1.298E-04    966.62    <-- DIS
      68     246.00036265     245.96924501       1.265E-04    980.14    <-- DIS
      69     245.98386980     245.95350459       1.235E-04    993.66    <-- DIS
      70     245.96776994     245.93809342       1.207E-04   1007.20    <-- DIS
      71     245.95202807     245.92298026       1.181E-04   1020.75    <-- DIS
      72     245.93661130     245.90813568       1.158E-04   1034.29    <-- DIS
      73     245.92148865     245.89353190       1.137E-04   1047.82    <-- DIS
      74     245.90663095     245.87914270       1.118E-04   1061.29    <-- DIS
      75     245.89201065     245.86494326       1.101E-04   1074.79    <-- DIS
      76     245.87760174     245.85091010       1.086E-04   1088.35    <-- DIS
      77     245.86337960     245.83702095       1.072E-04   1101.89    <-- DIS
      78     245.84932093     245.82325468       1.060E-04   1115.35    <-- DIS
      79     245.83540362     245.80959120       1.050E-04   1128.80    <-- DIS
      80     245.82160670     245.79601141       1.041E-04   1142.22    <-- DIS
      81     245.80791021     245.78249711       1.034E-04   1155.65    <-- DIS
      82     245.79429518     245.76903094       1.028E-04   1169.08    <-- DIS
      83     245.78074355     245.75559636       1.023E-04   1182.50    <-- DIS
      84     245.76723806     245.74217755       1.020E-04   1196.00    <-- DIS
      85     245.75376227     245.72875937       1.018E-04   1209.52    <-- DIS
      86     245.74030047     245.71532736       1.016E-04   1223.02    <-- DIS
      87     245.72683760     245.70186765       1.016E-04   1236.53    <-- DIS
      88     245.71335930     245.68836696       1.017E-04   1249.99    <-- DIS
      89     245.69985177     245.67481255       1.019E-04   1263.49    <-- DIS
      90     245.68630182     245.66119219       1.022E-04   1277.00    <-- DIS
      91     245.67269678     245.64749417       1.026E-04   1290.51    <-- DIS
      92     245.65902449     245.63370723       1.031E-04   1304.00    <-- DIS
      93     245.64527331     245.61982055       1.036E-04   1317.50    <-- DIS
      94     245.63143204     245.60582376       1.043E-04   1330.97    <-- DIS
      95     245.61748994     245.59170692       1.050E-04   1344.46    <-- DIS
      96     245.60343669     245.57746045       1.058E-04   1357.93    <-- DIS
      97     245.58926241     245.56307521       1.066E-04   1371.41    <-- DIS
      98     245.57495761     245.54854241       1.076E-04   1384.90    <-- DIS
      99     245.56051318     245.53385366       1.086E-04   1398.45    <-- DIS
     100     245.54592041     245.51900092       1.096E-04   1411.94    <-- DIS
     101     245.53117097     245.50397653       1.108E-04   1425.46    <-- DIS
     102     245.51625687     245.48877318       1.120E-04   1439.04    <-- DIS
     103     245.50117052     245.47338391       1.132E-04   1452.56    <-- DIS
     104     245.48590467     245.45780212       1.145E-04   1466.06    <-- DIS
     105     245.47045244     245.44202159       1.158E-04   1479.58    <-- DIS
     106     245.45480728     245.42603643       1.172E-04   1493.07    <-- DIS
     107     245.43896304     245.40984110       1.187E-04   1506.49    <-- DIS
     108     245.42291389     245.39343045       1.201E-04   1519.90    <-- DIS
     109     245.40665438     245.37679966       1.217E-04   1533.35    <-- DIS
     110     245.39017940     245.35994430       1.232E-04   1546.78    <-- DIS
     111     245.37348422     245.34286029       1.248E-04   1560.24    <-- DIS
     112     245.35656448     245.32554392       1.264E-04   1573.73    <-- DIS
     113     245.33941617     245.30799187       1.281E-04   1587.19    <-- DIS
     114     245.32203566     245.29020118       1.298E-04   1600.71    <-- DIS
     115     245.30441970     245.27216931       1.315E-04   1614.24    <-- DIS
     116     245.28656542     245.25389406       1.332E-04   1627.70    <-- DIS
     117     245.26847033     245.23537365       1.350E-04   1641.26    <-- DIS
     118     245.25013234     245.21660669       1.367E-04   1654.83    <-- DIS
     119     245.23154973     245.19759219       1.385E-04   1668.33    <-- DIS
     120     245.21272120     245.17832956       1.403E-04   1681.82    <-- DIS
     121     245.19364585     245.15881863       1.421E-04   1695.31    <-- DIS
     122     245.17432315     245.13905961       1.439E-04   1708.83    <-- DIS
     123     245.15475302     245.11905314       1.456E-04   1722.34    <-- DIS
     124     245.13493576     245.09880027       1.474E-04   1735.88    <-- DIS
     125     245.11487209     245.07830246       1.492E-04   1749.40    <-- DIS
     126     245.09456313     245.05756158       1.510E-04   1762.92    <-- DIS
     127     245.07401043     245.03657992       1.528E-04   1776.42    <-- DIS
     128     245.05321595     245.01536018       1.545E-04   1789.91    <-- DIS
     129     245.03218203     244.99390545       1.562E-04   1803.37    <-- DIS
     130     245.01091147     244.97221924       1.579E-04   1816.74    <-- DIS
     131     244.98940743     244.95030547       1.596E-04   1830.12    <-- DIS
     132     244.96767351     244.92816845       1.613E-04   1843.50    <-- DIS
     133     244.94571368     244.90581286       1.629E-04   1856.91    <-- DIS
     134     244.92353232     244.88324380       1.645E-04   1870.30    <-- DIS
     135     244.90113420     244.86046673       1.661E-04   1883.69    <-- DIS
     136     244.87852448     244.83748746       1.676E-04   1897.21    <-- DIS
     137     244.85570866     244.81431219       1.691E-04   1910.67    <-- DIS
     138     244.83269264     244.79094745       1.705E-04   1924.11    <-- DIS
     139     244.80948266     244.76740012       1.719E-04   1937.48    <-- DIS
     140     244.78608531     244.74367739       1.733E-04   1950.92    <-- DIS
     141     244.76250751     244.71978676       1.746E-04   1964.40    <-- DIS
     142     244.73875651     244.69573606       1.758E-04   1977.93    <-- DIS
     143     244.71483986     244.67153337       1.770E-04   1991.41    <-- DIS
     144     244.69076540     244.64718705       1.781E-04   2004.93    <-- DIS
     145     244.66654127     244.62270572       1.792E-04   2018.42    <-- DIS
     146     244.64217585     244.59809822       1.802E-04   2031.87    <-- DIS
     147     244.61767779     244.57337364       1.811E-04   2045.33    <-- DIS
     148     244.59305596     244.54854124       1.820E-04   2058.82    <-- DIS
     149     244.56831945     244.52361048       1.828E-04   2072.35    <-- DIS
     150     244.54347755     244.49859099       1.836E-04   2085.85    <-- DIS
     151     244.51853971     244.47349253       1.843E-04   2099.29    <-- DIS
     152     244.49351558     244.44832500       1.849E-04   2112.83    <-- DIS
     153     244.46841492     244.42309841       1.854E-04   2126.29    <-- DIS
     154     244.44324762     244.39782285       1.859E-04   2139.76    <-- DIS
     155     244.41802368     244.37250850       1.863E-04   2153.23    <-- DIS
     156     244.39275319     244.34716557       1.866E-04   2166.74    <-- DIS
     157     244.36744629     244.32180431       1.868E-04   2180.38    <-- DIS
     158     244.34211319     244.29643499       1.870E-04   2194.09    <-- DIS
     159     244.31676411     244.27106786       1.871E-04   2207.52    <-- DIS
     160     244.29140928     244.24571314       1.871E-04   2220.90    <-- DIS
     161     244.26605892     244.22038105       1.870E-04   2234.49    <-- DIS
     162     244.24072324     244.19508169       1.869E-04   2248.18    <-- DIS
     163     244.21541237     244.16982511       1.867E-04   2261.86    <-- DIS
     164     244.19013641     244.14462128       1.864E-04   2275.22    <-- DIS
     165     244.16490535     244.11948003       1.861E-04   2288.54    <-- DIS
     166     244.13972910     244.09441108       1.857E-04   2301.83    <-- DIS
     167     244.11461745     244.06942398       1.852E-04   2315.14    <-- DIS
     168     244.08958005     244.04452816       1.846E-04   2328.44    <-- DIS
     169     244.06462642     244.01973286       1.840E-04   2341.74    <-- DIS
     170     244.03976590     243.99504711       1.833E-04   2355.02    <-- DIS
     171     244.01500767     243.97047979       1.825E-04   2368.31    <-- DIS
     172     243.99036073     243.94603953       1.817E-04   2381.58    <-- DIS
     173     243.96583385     243.92173475       1.808E-04   2394.94    <-- DIS
     174     243.94143561     243.89757365       1.798E-04   2408.32    <-- DIS
     175     243.91717438     243.87356418       1.788E-04   2421.70    <-- DIS
     176     243.89305826     243.84971403       1.777E-04   2435.06    <-- DIS
     177     243.86909514     243.82603064       1.766E-04   2448.44    <-- DIS
     178     243.84529265     243.80252121       1.754E-04   2461.82    <-- DIS
     179     243.82165816     243.77919262       1.742E-04   2475.39    <-- DIS
     180     243.79819877     243.75605151       1.729E-04   2489.05    <-- DIS
     181     243.77492131     243.73310424       1.716E-04   2502.64    <-- DIS
     182     243.75183235     243.71035685       1.702E-04   2516.27    <-- DIS
     183     243.72893816     243.68781514       1.688E-04   2529.88    <-- DIS
     184     243.70624473     243.66548457       1.673E-04   2543.44    <-- DIS
     185     243.68375777     243.64337035       1.658E-04   2556.89    <-- DIS
     186     243.66148268     243.62147737       1.642E-04   2570.42    <-- DIS
     187     243.63942459     243.59981024       1.626E-04   2584.11    <-- DIS
     188     243.61758833     243.57837326       1.610E-04   2597.67    <-- DIS
     189     243.59597844     243.55717047       1.593E-04   2611.20    <-- DIS
     190     243.57459916     243.53620558       1.577E-04   2624.77    <-- DIS
     191     243.55345444     243.51548205       1.559E-04   2638.27    <-- DIS
     192     243.53254796     243.49500302       1.542E-04   2651.75    <-- DIS
     193     243.51188309     243.47477137       1.524E-04   2665.23    <-- DIS
     194     243.49146292     243.45478971       1.506E-04   2678.76    <-- DIS
     195     243.47129028     243.43506035       1.488E-04   2692.26    <-- DIS
     196     243.45136770     243.41558535       1.470E-04   2705.76    <-- DIS
     197     243.43169744     243.39636649       1.452E-04   2719.19    <-- DIS
     198     243.41228152     243.37740532       1.433E-04   2732.66    <-- DIS
     199     243.39312167     243.35870312       1.414E-04   2746.10    <-- DIS
     200     243.37421937     243.34026092       1.396E-04   2759.56    <-- DIS
     201     243.35557585     243.32207951       1.377E-04   2773.00    <-- DIS
     202     243.33719211     243.30415945       1.358E-04   2786.47    <-- DIS
     203     243.31906889     243.28650110       1.339E-04   2799.92    <-- DIS
     204     243.30120671     243.26910456       1.320E-04   2813.37    <-- DIS
     205     243.28360588     243.25196974       1.301E-04   2826.86    <-- DIS
     206     243.26626647     243.23509634       1.281E-04   2840.38    <-- DIS
     207     243.24918835     243.21848388       1.262E-04   2853.91    <-- DIS
     208     243.23237120     243.20213166       1.243E-04   2867.47    <-- DIS
     209     243.21581448     243.18603884       1.224E-04   2880.93    <-- DIS
     210     243.19951748     243.17020436       1.205E-04   2894.42    <-- DIS
     211     243.18347932     243.15462703       1.187E-04   2907.98    <-- DIS
     212     243.16769892     243.13930549       1.168E-04   2921.57    <-- DIS
     213     243.15217506     243.12423822       1.149E-04   2935.04    <-- DIS
     214     243.13690636     243.10942358       1.130E-04   2948.52    <-- DIS
     215     243.12189129     243.09485978       1.112E-04   2962.00    <-- DIS
     216     243.10712817     243.08054489       1.094E-04   2975.41    <-- DIS
     217     243.09261520     243.06647689       1.075E-04   2988.89    <-- DIS
     218     243.07835044     243.05265362       1.057E-04   3002.36    <-- DIS
     219     243.06433184     243.03907282       1.039E-04   3015.84    <-- DIS
     220     243.05055724     243.02573215       1.022E-04   3029.39    <-- DIS
     221     243.03702437     243.01262915       1.004E-04   3042.95    <-- DIS
     222     243.02373087     242.99976130       9.864E-05   3056.42    <-- DIS
     223     243.01067428     242.98712597       9.691E-05   3069.95    <-- DIS
     224     242.99785207     242.97472049       9.520E-05   3083.60    <-- DIS
     225     242.98526160     242.96254211       9.351E-05   3097.31    <-- DIS
     226     242.97290020     242.95058802       9.184E-05   3110.96    <-- DIS
     227     242.96076511     242.93885534       9.019E-05   3124.60    <-- DIS
     228     242.94885352     242.92734117       8.855E-05   3138.21    <-- DIS
     229     242.93716255     242.91604254       8.694E-05   3151.79    <-- DIS
     230     242.92568930     242.90495646       8.535E-05   3165.41    <-- DIS
     231     242.91443081     242.89407991       8.379E-05   3179.03    <-- DIS
     232     242.90338407     242.88340981       8.224E-05   3192.63    <-- DIS
     233     242.89254607     242.87294309       8.071E-05   3206.23    <-- DIS
     234     242.88191374     242.86267665       7.921E-05   3219.80    <-- DIS
     235     242.87148402     242.85260737       7.773E-05   3233.35    <-- DIS
     236     242.86125379     242.84273211       7.627E-05   3246.98    <-- DIS
     237     242.85121995     242.83304775       7.483E-05   3260.69    <-- DIS
     238     242.84137937     242.82355115       7.342E-05   3274.33    <-- DIS
     239     242.83172893     242.81423916       7.203E-05   3287.95    <-- DIS
     240     242.82226550     242.80510865       7.066E-05   3301.61    <-- DIS
     241     242.81298593     242.79615648       6.932E-05   3315.24    <-- DIS
     242     242.80388711     242.78737954       6.799E-05   3328.89    <-- DIS
     243     242.79496590     242.77877472       6.669E-05   3342.54    <-- DIS
     244     242.78621920     242.77033892       6.541E-05   3356.21    <-- DIS
     245     242.77764391     242.76206906       6.416E-05   3369.92    <-- DIS
     246     242.76923693     242.75396209       6.292E-05   3383.56    <-- DIS
     247     242.76099521     242.74601497       6.171E-05   3397.16    <-- DIS
     248     242.75291570     242.73822468       6.052E-05   3410.75    <-- DIS
     249     242.74499536     242.73058824       5.935E-05   3424.35    <-- DIS
     250     242.73723119     242.72310268       5.821E-05   3437.97    <-- DIS
     251     242.72962022     242.71576508       5.708E-05   3451.56    <-- DIS
     252     242.72215949     242.70857253       5.598E-05   3465.21    <-- DIS
     253     242.71484609     242.70152215       5.490E-05   3478.83    <-- DIS
     254     242.70767712     242.69461112       5.384E-05   3492.44    <-- DIS
     255     242.70064972     242.68783662       5.280E-05   3506.03    <-- DIS
     256     242.69376107     242.68119589       5.178E-05   3519.73    <-- DIS
     257     242.68700836     242.67468619       5.078E-05   3533.37    <-- DIS
     258     242.68038885     242.66830482       4.980E-05   3546.96    <-- DIS
     259     242.67389980     242.66204913       4.884E-05   3560.59    <-- DIS
     260     242.66753854     242.65591649       4.790E-05   3574.23    <-- DIS
     261     242.66130240     242.64990431       4.697E-05   3587.85    <-- DIS
     262     242.65518879     242.64401005       4.607E-05   3601.51    <-- DIS
     263     242.64919513     242.63823121       4.519E-05   3615.11    <-- DIS
     264     242.64331887     242.63256531       4.432E-05   3628.73    <-- DIS
     265     242.63755753     242.62700993       4.347E-05   3642.31    <-- DIS
     266     242.63190865     242.62156269       4.264E-05   3655.91    <-- DIS
     267     242.62636981     242.61622122       4.183E-05   3669.48    <-- DIS
     268     242.62093864     242.61098323       4.103E-05   3683.09    <-- DIS
     269     242.61561280     242.60584645       4.026E-05   3696.67    <-- DIS
     270     242.61038998     242.60080866       3.949E-05   3710.25    <-- DIS
     271     242.60526794     242.59586765       3.875E-05   3723.84    <-- DIS
     272     242.60024446     242.59102130       3.802E-05   3737.40    <-- DIS
     273     242.59531736     242.58626748       3.731E-05   3751.02    <-- DIS
     274     242.59048450     242.58160413       3.661E-05   3764.65    <-- DIS
     275     242.58574378     242.57702922       3.592E-05   3778.27    <-- DIS
     276     242.58109314     242.57254076       3.526E-05   3791.89    <-- DIS
     277     242.57653057     242.56813681       3.460E-05   3805.54    <-- DIS
     278     242.57205409     242.56381543       3.396E-05   3819.12    <-- DIS
     279     242.56766174     242.55957477       3.334E-05   3832.72    <-- DIS
     280     242.56335163     242.55541298       3.273E-05   3846.36    <-- DIS
     281     242.55912189     242.55132825       3.213E-05   3860.03    <-- DIS
     282     242.55497069     242.54731884       3.155E-05   3873.70    <-- DIS
     283     242.55089623     242.54338300       3.098E-05   3887.29    <-- DIS
     284     242.54689677     242.53951905       3.042E-05   3900.91    <-- DIS
     285     242.54297058     242.53572533       2.987E-05   3914.55    <-- DIS
     286     242.53911597     242.53200021       2.934E-05   3928.23    <-- DIS
     287     242.53533130     242.52834212       2.882E-05   3941.97    <-- DIS
     288     242.53161496     242.52474949       2.831E-05   3955.73    <-- DIS
     289     242.52796536     242.52122081       2.781E-05   3969.22    <-- DIS
     290     242.52438095     242.51775458       2.732E-05   3982.87    <-- DIS
     291     242.52086023     242.51434936       2.685E-05   3996.75    <-- DIS
     292     242.51740172     242.51100372       2.638E-05   4010.61    <-- DIS
     293     242.51400396     242.50771627       2.593E-05   4024.25    <-- DIS
     294     242.51066553     242.50448564       2.548E-05   4037.65    <-- DIS
     295     242.50738506     242.50131050       2.505E-05   4051.07    <-- DIS
     296     242.50416119     242.49818956       2.463E-05   4064.47    <-- DIS
     297     242.50099259     242.49512154       2.421E-05   4077.87    <-- DIS
     298     242.49787796     242.49210520       2.381E-05   4091.24    <-- DIS
     299     242.49481605     242.48913932       2.341E-05   4104.60    <-- DIS
     300     242.49180561     242.48622271       2.302E-05   4117.97    <-- DIS
     301     242.48884543     242.48335421       2.265E-05   4131.36    <-- DIS
     302     242.48593434     242.48053269       2.228E-05   4144.92    <-- DIS
     303     242.48307116     242.47775704       2.192E-05   4158.61    <-- DIS
     304     242.48025478     242.47502617       2.156E-05   4172.26    <-- DIS
     305     242.47748409     242.47233903       2.122E-05   4185.88    <-- DIS
     306     242.47475802     242.46969458       2.088E-05   4199.55    <-- DIS
     307     242.47207550     242.46709182       2.055E-05   4212.99    <-- DIS
     308     242.46943552     242.46452975       2.023E-05   4226.50    <-- DIS
     309     242.46683705     242.46200741       1.992E-05   4240.20    <-- DIS
[...]
  WF centre and spread   74  (  0.000000,  5.347703, 12.983707 )     2.64095721
  WF centre and spread   75  (  0.000000,  5.362912, 12.934984 )     2.50854883
  WF centre and spread   76  (  1.738500,  0.865648,  6.200208 )     2.85717095
  WF centre and spread   77  (  1.738500,  0.901297,  5.974707 )     2.64095720
  WF centre and spread   78  (  1.738500,  0.886088,  5.925984 )     2.50854884
  WF centre and spread   79  (  0.000000,  4.230426,  5.400281 )     2.89899984
  WF centre and spread   80  (  0.000000,  4.130400,  5.320160 )     2.70986102
  WF centre and spread   81  (  0.000000,  3.966139,  5.403575 )     2.85058024
  WF centre and spread   82  (  1.738500,  2.018574, 12.409281 )     2.89899983
  WF centre and spread   83  (  1.738500,  2.118600, 12.329160 )     2.70986103
  WF centre and spread   84  (  1.738500,  2.282861, 12.412575 )     2.85058029
  WF centre and spread   85  (  0.000000,  1.861412,  1.405609 )     2.90018317
  WF centre and spread   86  (  0.000000,  1.869240,  1.700717 )     2.58479366
  WF centre and spread   87  (  0.000000,  1.898170,  1.689872 )     2.52860492
  WF centre and spread   88  (  1.738500,  4.387588,  8.414609 )     2.90018322
  WF centre and spread   89  (  1.738500,  4.379760,  8.709717 )     2.58479366
  WF centre and spread   90  (  1.738500,  4.350830,  8.698872 )     2.52860491
  WF centre and spread   91  (  0.000000,  1.235666,  9.273166 )     2.72203016
  WF centre and spread   92  (  0.000000,  1.330291,  9.357560 )     2.60563414
  WF centre and spread   93  (  0.000000,  1.258255,  9.159197 )     3.05280734
  WF centre and spread   94  (  1.738500,  5.013334,  2.264166 )     2.72203016
  WF centre and spread   95  (  1.738500,  4.918709,  2.348560 )     2.60563417
  WF centre and spread   96  (  1.738500,  4.990745,  2.150197 )     3.05280762
  Sum of centres and spreads ( 83.448000,299.952000,702.606022 )   262.95251586
 
     99    -0.244E-02     0.0820023021      262.9525158531   14082.74  <-- CONV
        O_D=      0.5455512 O_OD=     21.4603770 O_TOT=    262.9525159 <-- SPRD
 Delta: O_D= -0.9110606E-04 O_OD= -0.2348568E-02 O_TOT= -0.2439674E-02 <-- DLTA
 ------------------------------------------------------------------------------
 Cycle:    100
  WF centre and spread    1  (  0.000000,  2.739760, 10.727482 )     6.25760810
  WF centre and spread    2  (  0.000000,  3.774847, 10.731483 )     2.12590974
  WF centre and spread    3  (  0.000000,  3.766045, 10.689072 )     2.16493646
  WF centre and spread    4  (  0.000000,  3.688195, 10.679432 )     2.06886954
  WF centre and spread    5  (  0.000000,  3.827504, 10.702306 )     1.98333100
  WF centre and spread    6  (  0.000000,  3.592468, 10.729787 )     2.23691467
  WF centre and spread    7  (  0.000000,  1.231333,  3.957523 )     5.81714944
  WF centre and spread    8  (  0.000000,  0.257698,  3.918956 )     2.07222800
  WF centre and spread    9  (  0.000000,  0.255726,  3.887172 )     2.10979771
  WF centre and spread   10  (  0.000000,  0.213815,  3.946409 )     2.07901255
  WF centre and spread   11  (  0.000000,  0.229270,  3.925477 )     1.97580965
  WF centre and spread   12  (  0.000000,  0.288745,  3.918359 )     1.98540251
  WF centre and spread   13  (  1.738500,  3.509240,  3.718482 )     6.25760821
  WF centre and spread   14  (  1.738500,  2.474153,  3.722483 )     2.12590992
  WF centre and spread   15  (  1.738500,  2.482955,  3.680072 )     2.16493638
  WF centre and spread   16  (  1.738500,  2.560805,  3.670432 )     2.06886955
  WF centre and spread   17  (  1.738500,  2.421496,  3.693306 )     1.98333099
  WF centre and spread   18  (  1.738500,  2.656532,  3.720787 )     2.23691490
  WF centre and spread   19  (  1.738500,  5.017667, 10.966523 )     5.81713761
  WF centre and spread   20  (  1.738500,  5.991302, 10.927956 )     2.07222795
  WF centre and spread   21  (  1.738500,  5.993274, 10.896172 )     2.10979764
  WF centre and spread   22  (  1.738500,  6.035185, 10.955409 )     2.07901256
  WF centre and spread   23  (  1.738500,  6.019730, 10.934477 )     1.97580963
  WF centre and spread   24  (  1.738500,  5.960255, 10.927359 )     1.98540251
  WF centre and spread   25  (  0.000000,  5.383374, 13.209223 )     2.85704220
  WF centre and spread   26  (  0.000000,  5.347695, 12.983707 )     2.64108514
  WF centre and spread   27  (  0.000000,  5.362889, 12.934975 )     2.50860646
  WF centre and spread   28  (  1.738500,  0.865626,  6.200223 )     2.85704243
  WF centre and spread   29  (  1.738500,  0.901305,  5.974707 )     2.64108516
  WF centre and spread   30  (  1.738500,  0.886111,  5.925975 )     2.50860646
  WF centre and spread   31  (  0.000000,  4.230647,  5.400409 )     2.89919797
  WF centre and spread   32  (  0.000000,  4.130418,  5.320163 )     2.71010360
  WF centre and spread   33  (  0.000000,  3.965952,  5.403448 )     2.85032715
  WF centre and spread   34  (  1.738500,  2.018353, 12.409409 )     2.89919797
  WF centre and spread   35  (  1.738500,  2.118582, 12.329163 )     2.71010360
  WF centre and spread   36  (  1.738500,  2.283048, 12.412448 )     2.85032718
  WF centre and spread   37  (  0.000000,  1.861393,  1.405587 )     2.90027029
  WF centre and spread   38  (  0.000000,  1.869241,  1.700729 )     2.58483132
  WF centre and spread   39  (  0.000000,  1.898193,  1.689875 )     2.52859558
  WF centre and spread   40  (  1.738500,  4.387607,  8.414587 )     2.90027001
  WF centre and spread   41  (  1.738500,  4.379759,  8.709729 )     2.58483131
  WF centre and spread   42  (  1.738500,  4.350807,  8.698875 )     2.52859555
  WF centre and spread   43  (  0.000000,  1.235585,  9.273174 )     2.72179005
  WF centre and spread   44  (  0.000000,  1.330291,  9.357572 )     2.60580369
  WF centre and spread   45  (  0.000000,  1.258334,  9.159184 )     3.05296988
  WF centre and spread   46  (  1.738500,  5.013415,  2.264174 )     2.72179007
  WF centre and spread   47  (  1.738500,  4.918709,  2.348572 )     2.60580371
  WF centre and spread   48  (  1.738500,  4.990666,  2.150184 )     3.05296994
  WF centre and spread   49  (  0.000000,  2.739760, 10.727482 )     6.25761158
  WF centre and spread   50  (  0.000000,  3.774847, 10.731482 )     2.12590983
  WF centre and spread   51  (  0.000000,  3.766045, 10.689072 )     2.16493640
  WF centre and spread   52  (  0.000000,  3.688195, 10.679432 )     2.06886953
  WF centre and spread   53  (  0.000000,  3.827504, 10.702306 )     1.98333101
  WF centre and spread   54  (  0.000000,  3.592468, 10.729787 )     2.23691503
  WF centre and spread   55  (  0.000000,  1.231333,  3.957523 )     5.81714076
  WF centre and spread   56  (  0.000000,  0.257698,  3.918956 )     2.07222793
  WF centre and spread   57  (  0.000000,  0.255726,  3.887172 )     2.10979765
  WF centre and spread   58  (  0.000000,  0.213815,  3.946409 )     2.07901255
  WF centre and spread   59  (  0.000000,  0.229270,  3.925477 )     1.97580961
  WF centre and spread   60  (  0.000000,  0.288745,  3.918359 )     1.98540253
  WF centre and spread   61  (  1.738500,  3.509240,  3.718482 )     6.25761771
  WF centre and spread   62  (  1.738500,  2.474153,  3.722483 )     2.12590985
  WF centre and spread   63  (  1.738500,  2.482955,  3.680072 )     2.16493637
  WF centre and spread   64  (  1.738500,  2.560805,  3.670432 )     2.06886957
  WF centre and spread   65  (  1.738500,  2.421496,  3.693306 )     1.98333109
  WF centre and spread   66  (  1.738500,  2.656532,  3.720787 )     2.23691481
  WF centre and spread   67  (  1.738500,  5.017667, 10.966523 )     5.81715440
  WF centre and spread   68  (  1.738500,  5.991302, 10.927956 )     2.07222806
  WF centre and spread   69  (  1.738500,  5.993274, 10.896172 )     2.10979770
  WF centre and spread   70  (  1.738500,  6.035185, 10.955409 )     2.07901256
  WF centre and spread   71  (  1.738500,  6.019730, 10.934477 )     1.97580966
  WF centre and spread   72  (  1.738500,  5.960255, 10.927359 )     1.98540252
  WF centre and spread   73  (  0.000000,  5.383374, 13.209223 )     2.85704236
  WF centre and spread   74  (  0.000000,  5.347695, 12.983707 )     2.64108514
  WF centre and spread   75  (  0.000000,  5.362889, 12.934975 )     2.50860646
  WF centre and spread   76  (  1.738500,  0.865626,  6.200223 )     2.85704220
  WF centre and spread   77  (  1.738500,  0.901305,  5.974707 )     2.64108513
  WF centre and spread   78  (  1.738500,  0.886111,  5.925975 )     2.50860646
  WF centre and spread   79  (  0.000000,  4.230647,  5.400409 )     2.89919800
  WF centre and spread   80  (  0.000000,  4.130418,  5.320163 )     2.71010365
  WF centre and spread   81  (  0.000000,  3.965952,  5.403448 )     2.85032717
  WF centre and spread   82  (  1.738500,  2.018353, 12.409409 )     2.89919799
  WF centre and spread   83  (  1.738500,  2.118582, 12.329163 )     2.71010365
  WF centre and spread   84  (  1.738500,  2.283048, 12.412448 )     2.85032721
  WF centre and spread   85  (  0.000000,  1.861393,  1.405587 )     2.90027019
  WF centre and spread   86  (  0.000000,  1.869241,  1.700729 )     2.58483132
  WF centre and spread   87  (  0.000000,  1.898193,  1.689875 )     2.52859556
  WF centre and spread   88  (  1.738500,  4.387607,  8.414587 )     2.90027022
  WF centre and spread   89  (  1.738500,  4.379759,  8.709729 )     2.58483132
  WF centre and spread   90  (  1.738500,  4.350807,  8.698875 )     2.52859555
  WF centre and spread   91  (  0.000000,  1.235585,  9.273174 )     2.72179007
  WF centre and spread   92  (  0.000000,  1.330291,  9.357572 )     2.60580369
  WF centre and spread   93  (  0.000000,  1.258334,  9.159184 )     3.05296992
  WF centre and spread   94  (  1.738500,  5.013415,  2.264174 )     2.72179006
  WF centre and spread   95  (  1.738500,  4.918709,  2.348572 )     2.60580372
  WF centre and spread   96  (  1.738500,  4.990666,  2.150184 )     3.05297015
  Sum of centres and spreads ( 83.448000,299.952000,702.606018 )   262.95036985
 
    100    -0.215E-02     0.0821376570      262.9503698448   14090.95  <-- CONV
        O_D=      0.5454057 O_OD=     21.4583764 O_TOT=    262.9503698 <-- SPRD
 Delta: O_D= -0.1454532E-03 O_OD= -0.2000555E-02 O_TOT= -0.2146008E-02 <-- DLTA
 ------------------------------------------------------------------------------

 Writing checkpoint file wannier90.chk... done

 Final State
  WF centre and spread    1  (  0.000000,  2.739760, 10.727482 )     6.25760810
  WF centre and spread    2  (  0.000000,  3.774847, 10.731483 )     2.12590974
  WF centre and spread    3  (  0.000000,  3.766045, 10.689072 )     2.16493646
  WF centre and spread    4  (  0.000000,  3.688195, 10.679432 )     2.06886954
  WF centre and spread    5  (  0.000000,  3.827504, 10.702306 )     1.98333100
  WF centre and spread    6  (  0.000000,  3.592468, 10.729787 )     2.23691467
  WF centre and spread    7  (  0.000000,  1.231333,  3.957523 )     5.81714944
  WF centre and spread    8  (  0.000000,  0.257698,  3.918956 )     2.07222800
  WF centre and spread    9  (  0.000000,  0.255726,  3.887172 )     2.10979771
  WF centre and spread   10  (  0.000000,  0.213815,  3.946409 )     2.07901255
  WF centre and spread   11  (  0.000000,  0.229270,  3.925477 )     1.97580965
  WF centre and spread   12  (  0.000000,  0.288745,  3.918359 )     1.98540251
  WF centre and spread   13  (  1.738500,  3.509240,  3.718482 )     6.25760821
  WF centre and spread   14  (  1.738500,  2.474153,  3.722483 )     2.12590992
  WF centre and spread   15  (  1.738500,  2.482955,  3.680072 )     2.16493638
  WF centre and spread   16  (  1.738500,  2.560805,  3.670432 )     2.06886955
  WF centre and spread   17  (  1.738500,  2.421496,  3.693306 )     1.98333099
  WF centre and spread   18  (  1.738500,  2.656532,  3.720787 )     2.23691490
  WF centre and spread   19  (  1.738500,  5.017667, 10.966523 )     5.81713761
  WF centre and spread   20  (  1.738500,  5.991302, 10.927956 )     2.07222795
  WF centre and spread   21  (  1.738500,  5.993274, 10.896172 )     2.10979764
  WF centre and spread   22  (  1.738500,  6.035185, 10.955409 )     2.07901256
  WF centre and spread   23  (  1.738500,  6.019730, 10.934477 )     1.97580963
  WF centre and spread   24  (  1.738500,  5.960255, 10.927359 )     1.98540251
  WF centre and spread   25  (  0.000000,  5.383374, 13.209223 )     2.85704220
  WF centre and spread   26  (  0.000000,  5.347695, 12.983707 )     2.64108514
  WF centre and spread   27  (  0.000000,  5.362889, 12.934975 )     2.50860646
  WF centre and spread   28  (  1.738500,  0.865626,  6.200223 )     2.85704243
  WF centre and spread   29  (  1.738500,  0.901305,  5.974707 )     2.64108516
  WF centre and spread   30  (  1.738500,  0.886111,  5.925975 )     2.50860646
  WF centre and spread   31  (  0.000000,  4.230647,  5.400409 )     2.89919797
  WF centre and spread   32  (  0.000000,  4.130418,  5.320163 )     2.71010360
  WF centre and spread   33  (  0.000000,  3.965952,  5.403448 )     2.85032715
  WF centre and spread   34  (  1.738500,  2.018353, 12.409409 )     2.89919797
  WF centre and spread   35  (  1.738500,  2.118582, 12.329163 )     2.71010360
  WF centre and spread   36  (  1.738500,  2.283048, 12.412448 )     2.85032718
  WF centre and spread   37  (  0.000000,  1.861393,  1.405587 )     2.90027029
  WF centre and spread   38  (  0.000000,  1.869241,  1.700729 )     2.58483132
  WF centre and spread   39  (  0.000000,  1.898193,  1.689875 )     2.52859558
  WF centre and spread   40  (  1.738500,  4.387607,  8.414587 )     2.90027001
  WF centre and spread   41  (  1.738500,  4.379759,  8.709729 )     2.58483131
  WF centre and spread   42  (  1.738500,  4.350807,  8.698875 )     2.52859555
  WF centre and spread   43  (  0.000000,  1.235585,  9.273174 )     2.72179005
  WF centre and spread   44  (  0.000000,  1.330291,  9.357572 )     2.60580369
  WF centre and spread   45  (  0.000000,  1.258334,  9.159184 )     3.05296988
  WF centre and spread   46  (  1.738500,  5.013415,  2.264174 )     2.72179007
  WF centre and spread   47  (  1.738500,  4.918709,  2.348572 )     2.60580371
  WF centre and spread   48  (  1.738500,  4.990666,  2.150184 )     3.05296994
  WF centre and spread   49  (  0.000000,  2.739760, 10.727482 )     6.25761158
  WF centre and spread   50  (  0.000000,  3.774847, 10.731482 )     2.12590983
  WF centre and spread   51  (  0.000000,  3.766045, 10.689072 )     2.16493640
  WF centre and spread   52  (  0.000000,  3.688195, 10.679432 )     2.06886953
  WF centre and spread   53  (  0.000000,  3.827504, 10.702306 )     1.98333101
  WF centre and spread   54  (  0.000000,  3.592468, 10.729787 )     2.23691503
  WF centre and spread   55  (  0.000000,  1.231333,  3.957523 )     5.81714076
  WF centre and spread   56  (  0.000000,  0.257698,  3.918956 )     2.07222793
  WF centre and spread   57  (  0.000000,  0.255726,  3.887172 )     2.10979765
  WF centre and spread   58  (  0.000000,  0.213815,  3.946409 )     2.07901255
  WF centre and spread   59  (  0.000000,  0.229270,  3.925477 )     1.97580961
  WF centre and spread   60  (  0.000000,  0.288745,  3.918359 )     1.98540253
  WF centre and spread   61  (  1.738500,  3.509240,  3.718482 )     6.25761771
  WF centre and spread   62  (  1.738500,  2.474153,  3.722483 )     2.12590985
  WF centre and spread   63  (  1.738500,  2.482955,  3.680072 )     2.16493637
  WF centre and spread   64  (  1.738500,  2.560805,  3.670432 )     2.06886957
  WF centre and spread   65  (  1.738500,  2.421496,  3.693306 )     1.98333109
  WF centre and spread   66  (  1.738500,  2.656532,  3.720787 )     2.23691481
  WF centre and spread   67  (  1.738500,  5.017667, 10.966523 )     5.81715440
  WF centre and spread   68  (  1.738500,  5.991302, 10.927956 )     2.07222806
  WF centre and spread   69  (  1.738500,  5.993274, 10.896172 )     2.10979770
  WF centre and spread   70  (  1.738500,  6.035185, 10.955409 )     2.07901256
  WF centre and spread   71  (  1.738500,  6.019730, 10.934477 )     1.97580966
  WF centre and spread   72  (  1.738500,  5.960255, 10.927359 )     1.98540252
  WF centre and spread   73  (  0.000000,  5.383374, 13.209223 )     2.85704236
  WF centre and spread   74  (  0.000000,  5.347695, 12.983707 )     2.64108514
  WF centre and spread   75  (  0.000000,  5.362889, 12.934975 )     2.50860646
  WF centre and spread   76  (  1.738500,  0.865626,  6.200223 )     2.85704220
  WF centre and spread   77  (  1.738500,  0.901305,  5.974707 )     2.64108513
  WF centre and spread   78  (  1.738500,  0.886111,  5.925975 )     2.50860646
  WF centre and spread   79  (  0.000000,  4.230647,  5.400409 )     2.89919800
  WF centre and spread   80  (  0.000000,  4.130418,  5.320163 )     2.71010365
  WF centre and spread   81  (  0.000000,  3.965952,  5.403448 )     2.85032717
  WF centre and spread   82  (  1.738500,  2.018353, 12.409409 )     2.89919799
  WF centre and spread   83  (  1.738500,  2.118582, 12.329163 )     2.71010365
  WF centre and spread   84  (  1.738500,  2.283048, 12.412448 )     2.85032721
  WF centre and spread   85  (  0.000000,  1.861393,  1.405587 )     2.90027019
  WF centre and spread   86  (  0.000000,  1.869241,  1.700729 )     2.58483132
  WF centre and spread   87  (  0.000000,  1.898193,  1.689875 )     2.52859556
  WF centre and spread   88  (  1.738500,  4.387607,  8.414587 )     2.90027022
  WF centre and spread   89  (  1.738500,  4.379759,  8.709729 )     2.58483132
  WF centre and spread   90  (  1.738500,  4.350807,  8.698875 )     2.52859555
  WF centre and spread   91  (  0.000000,  1.235585,  9.273174 )     2.72179007
  WF centre and spread   92  (  0.000000,  1.330291,  9.357572 )     2.60580369
  WF centre and spread   93  (  0.000000,  1.258334,  9.159184 )     3.05296992
  WF centre and spread   94  (  1.738500,  5.013415,  2.264174 )     2.72179006
  WF centre and spread   95  (  1.738500,  4.918709,  2.348572 )     2.60580372
  WF centre and spread   96  (  1.738500,  4.990666,  2.150184 )     3.05297015
  Sum of centres and spreads ( 83.448000,299.952000,702.606018 )   262.95036985
 
         Spreads (Ang^2)       Omega I      =   240.946587714
        ================       Omega D      =     0.545405727
                               Omega OD     =    21.458376404
    Final Spread (Ang^2)       Omega Total  =   262.950369845
 ------------------------------------------------------------------------------
 Time for wannierise          822.696 (sec)

 Writing checkpoint file wannier90.chk... done

 *---------------------------------------------------------------------------*
 |                               PLOTTING                                    |
 *---------------------------------------------------------------------------*
 
 
 Calculating interpolated band-structure
 
 Time to calculate interpolated band structure      30.959 (sec)
 
 Time for plotting             42.052 (sec)
 Total Execution Time       14135.339 (sec)

 *===========================================================================*
 |                             TIMING INFORMATION                            |
 *===========================================================================*
 |    Tag                                                Ncalls      Time (s)|
 |---------------------------------------------------------------------------|
 |kmesh: get                                        :         1         0.109|
 |overlap: read                                     :         1        50.047|
 |dis: main                                         :         1     13219.408|
 |wann: main                                        :         1       822.696|
 |plot: main                                        :         1        42.052|
 *---------------------------------------------------------------------------*
 
 All done: wannier90 exiting
