 written on 23Jan2015 at 16:38:29 
          14
         279
    3    2    2    3    2    3    6    2    2    2    1    2    2    1    1
    2    2    1    1    1    2    2    1    1    1    1    2    6    2    2
    2    2    2    6    2    2    3    1    1    1    3    2    1    1    1
    1    2    3    1    1    1    1    1    3    1    1    1    1    1    1
    2    1    1    1    1    1    2    2    1    1    1    1    2    3    2
    3    2    1    2    2    1    1    1    1    2    2    1    1    1    1
    1    2    1    1    1    1    1    1    2    1    1    1    1    1    2
    1    1    1    1    1    1    2    1    1    1    2    2    2    3    2
    1    1    2    3    1    1    1    1    1    3    1    1    1    1    1
    1    2    1    1    1    1    1    2    1    1    1    1    1    1    3
    1    1    1    1    1    3    2    1    1    2    3    2    2    2    1
    1    1    2    1    1    1    1    1    1    2    1    1    1    1    1
    2    1    1    1    1    1    1    2    1    1    1    1    1    2    2
    1    1    1    1    2    2    1    2    3    2    3    2    1    1    1
    1    2    2    1    1    1    1    1    2    1    1    1    1    1    1
    3    1    1    1    1    1    3    2    1    1    1    1    2    3    1
    1    1    3    2    2    6    2    2    2    2    2    6    2    1    1
    1    1    2    2    1    1    1    2    2    1    1    2    2    1    2
    2    2    6    3    2    3    2    2    3
   -4    0    2    1    1   -0.003453    0.000065
   -4    0    2    2    1    0.000660    0.000199
   -4    0    2    3    1    0.001373    0.000157
   -4    0    2    4    1   -0.001027    0.000233
   -4    0    2    5    1    0.000898   -0.000114
   -4    0    2    6    1   -0.000078    0.000360
   -4    0    2    7    1   -0.002173   -0.000055
   -4    0    2    8    1   -0.000329   -0.001219
   -4    0    2    9    1    0.000476    0.000312
   -4    0    2   10    1    0.000370   -0.000284
   -4    0    2   11    1   -0.000426    0.000374
   -4    0    2   12    1   -0.000099   -0.000371
   -4    0    2   13    1    0.001184    0.000231
   -4    0    2   14    1    0.000563   -0.001429
   -4    0    2    1    2    0.002503   -0.000346
   -4    0    2    2    2    0.005802    0.000351
   -4    0    2    3    2   -0.002410   -0.000777
   -4    0    2    4    2    0.001920   -0.000767
   -4    0    2    5    2   -0.002528    0.000083
   -4    0    2    6    2    0.005367   -0.000062
   -4    0    2    7    2    0.002588   -0.000117
   -4    0    2    8    2   -0.000343    0.000016
   -4    0    2    9    2   -0.000586    0.002905
   -4    0    2   10    2    0.003391   -0.000693
   -4    0    2   11    2   -0.000502   -0.002983
   -4    0    2   12    2    0.000264    0.000243
   -4    0    2   13    2   -0.001011    0.000811
   -4    0    2   14    2   -0.000673    0.001034
   -4    0    2    1    3    0.002331   -0.001008
   -4    0    2    2    3    0.000127    0.000814
   -4    0    2    3    3    0.007229   -0.000650
   -4    0    2    4    3    0.001120   -0.002839
   -4    0    2    5    3    0.004982    0.000155
   -4    0    2    6    3   -0.001795    0.001224
   -4    0    2    7    3    0.001967    0.000856
   -4    0    2    8    3    0.000451    0.000305
   -4    0    2    9    3   -0.003311    0.000241
   -4    0    2   10    3   -0.000277    0.002279
   -4    0    2   11    3   -0.002017    0.000223
   -4    0    2   12    3    0.001631   -0.000141
   -4    0    2   13    3    0.000134   -0.001178
   -4    0    2   14    3    0.000434    0.000489
   -4    0    2    1    4   -0.002526    0.000021
   -4    0    2    2    4   -0.000072    0.001057
   -4    0    2    3    4    0.001216    0.002688
   -4    0    2    4    4    0.006063    0.000287
   -4    0    2    5    4    0.002684   -0.000072
   -4    0    2    6    4    0.002930   -0.000539
   -4    0    2    7    4    0.006682   -0.001215
   -4    0    2    8    4   -0.000160   -0.000278
   -4    0    2    9    4    0.000453    0.003381
   -4    0    2   10    4    0.002044    0.000129
   -4    0    2   11    4   -0.000206    0.002476
   -4    0    2   12    4   -0.000090   -0.000083
   -4    0    2   13    4   -0.000427    0.001365
   -4    0    2   14    4   -0.000414    0.001803
   -4    0    2    1    5   -0.002062    0.000076
   -4    0    2    2    5    0.000549    0.000242
   -4    0    2    3    5    0.004268   -0.000073
   -4    0    2    4    5    0.003066   -0.000283
   -4    0    2    5    5    0.002797    0.000106
   -4    0    2    6    5   -0.000328   -0.002291
   -4    0    2    7    5    0.001316   -0.000674
   -4    0    2    8    5    0.000451   -0.001482
   -4    0    2    9    5   -0.000127   -0.001113
   -4    0    2   10    5   -0.000388    0.002028
   -4    0    2   11    5    0.000831    0.000749
   -4    0    2   12    5    0.000810    0.000503
   -4    0    2   13    5    0.006941   -0.000337
   -4    0    2   14    5   -0.000795   -0.005727
   -4    0    2    1    6   -0.001970    0.000851
   -4    0    2    2    6    0.000366   -0.001016
   -4    0    2    3    6   -0.001874   -0.000607
   -4    0    2    4    6    0.003032    0.000045
   -4    0    2    5    6    0.002721    0.002115
   -4    0    2    6    6    0.001394   -0.000413
   -4    0    2    7    6   -0.001394   -0.005650
   -4    0    2    8    6    0.001433   -0.000729
   -4    0    2    9    6    0.000824    0.000417
   -4    0    2   10    6   -0.000745   -0.000518
   -4    0    2   11    6    0.000036   -0.001062
   -4    0    2   12    6   -0.006143   -0.000488
   -4    0    2   13    6    0.000108    0.000613
   -4    0    2   14    6   -0.003763    0.000337
   -4    0    2    1    7    0.003203    0.000960
   -4    0    2    2    7   -0.000427    0.000058
   -4    0    2    3    7    0.000124   -0.000291
   -4    0    2    4    7   -0.002792    0.000365
   -4    0    2    5    7   -0.003432    0.001856
   -4    0    2    6    7   -0.001199    0.006074
   -4    0    2    7    7    0.002599    0.000148
   -4    0    2    8    7    0.000073    0.000306
   -4    0    2    9    7   -0.000618    0.002001
   -4    0    2   10    7   -0.000679    0.002007
   -4    0    2   11    7    0.000530    0.001277
   -4    0    2   12    7    0.000118    0.006968
   -4    0    2   13    7    0.002730    0.000423
   -4    0    2   14    7    0.000535    0.000639
   -4    0    2    1    8   -0.000273    0.001253
   -4    0    2    2    8    0.000285    0.001047
   -4    0    2    3    8   -0.000680    0.001163
   -4    0    2    4    8   -0.001360   -0.000765
   -4    0    2    5    8   -0.001064   -0.001003
   -4    0    2    6    8    0.000242    0.001241
   -4    0    2    7    8   -0.000071    0.002373
   -4    0    2    8    8   -0.003379   -0.000018
   -4    0    2    9    8    0.002049   -0.000193
   -4    0    2   10    8    0.001342   -0.000196
   -4    0    2   11    8   -0.001715   -0.000182
   -4    0    2   12    8   -0.001948    0.000158
   -4    0    2   13    8   -0.000931   -0.000345
   -4    0    2   14    8   -0.000866    0.000011
   -4    0    2    1    9   -0.000294    0.000202
   -4    0    2    2    9   -0.000650   -0.002921
   -4    0    2    3    9    0.004094    0.004587
   -4    0    2    4    9    0.003014   -0.001168
   -4    0    2    5    9   -0.000249    0.001319
   -4    0    2    6    9   -0.000950   -0.001017
   -4    0    2    7    9   -0.002385   -0.001098
   -4    0    2    8    9    0.003053    0.000339
   -4    0    2    9    9    0.008200   -0.000396
   -4    0    2   10    9    0.000698    0.000818
   -4    0    2   11    9   -0.000309    0.000858
   -4    0    2   12    9   -0.001317   -0.000015
   -4    0    2   13    9    0.004419    0.000253
   -4    0    2   14    9    0.002720   -0.000023
   -4    0    2    1   10    0.001141    0.000656
   -4    0    2    2   10   -0.003930   -0.003161
   -4    0    2    3   10    0.000040   -0.002438
   -4    0    2    4   10   -0.001233   -0.003975
   -4    0    2    5   10    0.001093    0.000421
   -4    0    2    6   10   -0.000338   -0.000483
   -4    0    2    7   10    0.000125    0.002718
   -4    0    2    8   10    0.003264    0.000996
   -4    0    2    9   10   -0.001770   -0.000803
   -4    0    2   10   10    0.006766    0.000548
   -4    0    2   11   10    0.000521    0.002829
   -4    0    2   12   10    0.004814   -0.000296
   -4    0    2   13   10   -0.002015   -0.001202
   -4    0    2   14   10    0.003394   -0.000755
   -4    0    2    1   11    0.000603   -0.000753
   -4    0    2    2   11   -0.003034    0.000072
   -4    0    2    3   11    0.001069    0.002313
   -4    0    2    4   11   -0.000347   -0.002647
   -4    0    2    5   11    0.001345   -0.001837
   -4    0    2    6   11   -0.000375   -0.002880
   -4    0    2    7   11    0.000644   -0.001512
   -4    0    2    8   11   -0.003042   -0.000013
   -4    0    2    9   11    0.001721   -0.000942
   -4    0    2   10   11    0.000491   -0.002751
   -4    0    2   11   11    0.008006   -0.000374
   -4    0    2   12   11    0.002470    0.000049
   -4    0    2   13   11    0.002111    0.000547
   -4    0    2   14   11    0.005540    0.001223
   -4    0    2    1   12    0.002436   -0.000376
   -4    0    2    2   12   -0.000068    0.000590
   -4    0    2    3   12   -0.000473   -0.002556
   -4    0    2    4   12   -0.000980   -0.000266
   -4    0    2    5   12    0.000636   -0.000403
   -4    0    2    6   12    0.009196    0.008473
   -4    0    2    7   12    0.003959   -0.001966
   -4    0    2    8   12   -0.002027   -0.000055
   -4    0    2    9   12   -0.001966   -0.000253
   -4    0    2   10   12   -0.000022   -0.000008
   -4    0    2   11   12    0.001000    0.000201
   -4    0    2   12   12    0.000607   -0.000196
   -4    0    2   13   12    0.001660    0.002301
   -4    0    2   14   12   -0.002641    0.000713
   -4    0    2    1   13   -0.001200   -0.001045
   -4    0    2    2   13    0.001888   -0.000689
   -4    0    2    3   13   -0.000058    0.000843
   -4    0    2    4   13    0.001722   -0.001492
   -4    0    2    5   13   -0.008269   -0.008568
   -4    0    2    6   13    0.000705   -0.000726
   -4    0    2    7   13   -0.001275   -0.004161
   -4    0    2    8   13   -0.002135   -0.000856
   -4    0    2    9   13    0.003902    0.001076
   -4    0    2   10   13    0.000452    0.000547
   -4    0    2   11   13    0.001016   -0.000015
   -4    0    2   12   13   -0.001394   -0.002076
   -4    0    2   13   13    0.001890    0.000482
   -4    0    2   14   13    0.000066    0.005593
   -4    0    2    1   14   -0.001655    0.000382
   -4    0    2    2   14    0.001219   -0.000730
   -4    0    2    3   14   -0.000288   -0.001484
   -4    0    2    4   14   -0.000217   -0.000635
   -4    0    2    5   14   -0.005022    0.002621
   -4    0    2    6   14    0.000175    0.003994
   -4    0    2    7   14    0.000249   -0.000924
   -4    0    2    8   14    0.004025   -0.000960
   -4    0    2    9   14    0.002025   -0.000118
   -4    0    2   10   14    0.001534    0.000253
   -4    0    2   11   14   -0.001926   -0.000328
   -4    0    2   12   14    0.002105   -0.001878
   -4    0    2   13   14   -0.000126   -0.006016
   -4    0    2   14   14    0.000762   -0.000205
   -4    1    1    1    1   -0.001195    0.000016
   -4    1    1    2    1   -0.000287   -0.000416
   -4    1    1    3    1   -0.002020   -0.000161
   -4    1    1    4    1   -0.000109   -0.000868
   -4    1    1    5    1    0.001324    0.000515
   -4    1    1    6    1    0.004256   -0.000177
   -4    1    1    7    1    0.001373    0.001895
   -4    1    1    8    1   -0.000015   -0.000437
   -4    1    1    9    1   -0.000715   -0.000033
   -4    1    1   10    1   -0.000611    0.000145
   -4    1    1   11    1   -0.000262    0.000261
   -4    1    1   12    1    0.000173    0.000165
   -4    1    1   13    1   -0.000339   -0.001050
   -4    1    1   14    1    0.000859   -0.000866
   -4    1    1    1    2    0.000158   -0.000046
   -4    1    1    2    2    0.004255   -0.001275
   -4    1    1    3    2   -0.001095    0.000458
   -4    1    1    4    2   -0.000526   -0.000541
   -4    1    1    5    2    0.000737    0.000557
   -4    1    1    6    2   -0.006074   -0.000582
   -4    1    1    7    2    0.006953   -0.000755
   -4    1    1    8    2    0.000113   -0.000290
   -4    1    1    9    2    0.000602    0.000237
   -4    1    1   10    2   -0.000387   -0.001811
   -4    1    1   11    2   -0.000225   -0.000006
   -4    1    1   12    2    0.000606   -0.000047
   -4    1    1   13    2    0.000282   -0.000954
   -4    1    1   14    2    0.000734    0.001181
   -4    1    1    1    3   -0.006717    0.000136
   -4    1    1    2    3    0.001051    0.000293
   -4    1    1    3    3   -0.010124    0.000478
   -4    1    1    4    3   -0.000037    0.002947
   -4    1    1    5    3   -0.005389    0.000368
   -4    1    1    6    3    0.003074   -0.000089
   -4    1    1    7    3   -0.004944    0.000711
   -4    1    1    8    3    0.000159    0.000120
   -4    1    1    9    3    0.000431    0.001930
   -4    1    1   10    3    0.000415   -0.003415
   -4    1    1   11    3    0.001521   -0.002696
   -4    1    1   12    3    0.000316   -0.001196
   -4    1    1   13    3   -0.000538   -0.000065
   -4    1    1   14    3   -0.000751   -0.000214
   -4    1    1    1    4   -0.000068    0.000198
   -4    1    1    2    4   -0.000609    0.000485
   -4    1    1    3    4    0.000002   -0.003025
   -4    1    1    4    4    0.003575    0.000929
   -4    1    1    5    4    0.006098    0.000090
   -4    1    1    6    4   -0.006049   -0.000642
   -4    1    1    7    4    0.000482   -0.000450
   -4    1    1    8    4   -0.000138   -0.000004
   -4    1    1    9    4   -0.000134    0.000325
   -4    1    1   10    4   -0.001190    0.002907
   -4    1    1   11    4   -0.000197    0.000719
   -4    1    1   12    4   -0.000744    0.003086
   -4    1    1   13    4    0.000232   -0.000977
   -4    1    1   14    4   -0.000136    0.001028
   -4    1    1    1    5   -0.000837    0.000207
   -4    1    1    2    5   -0.001227    0.000178
   -4    1    1    3    5   -0.004124    0.000807
   -4    1    1    4    5    0.004362    0.000562
   -4    1    1    5    5   -0.002397    0.000842
   -4    1    1    6    5   -0.002235    0.000594
   -4    1    1    7    5    0.001466   -0.000358
   -4    1    1    8    5    0.000926   -0.001374
   -4    1    1    9    5   -0.000042    0.000647
   -4    1    1   10    5    0.000905   -0.000141
   -4    1    1   11    5   -0.000116    0.000647
   -4    1    1   12    5   -0.001051    0.000589
   -4    1    1   13    5   -0.001941   -0.001297
   -4    1    1   14    5   -0.000495    0.001319
   -4    1    1    1    6    0.001011    0.000246
   -4    1    1    2    6   -0.003839   -0.000020
   -4    1    1    3    6   -0.001116   -0.000106
   -4    1    1    4    6   -0.004544   -0.001374
   -4    1    1    5    6    0.002359   -0.001703
   -4    1    1    6    6   -0.003945   -0.000215
   -4    1    1    7    6    0.000286    0.006692
   -4    1    1    8    6    0.000823    0.000062
   -4    1    1    9    6    0.000285   -0.001194
   -4    1    1   10    6    0.000161    0.000089
   -4    1    1   11    6    0.000531   -0.000009
   -4    1    1   12    6    0.001384    0.001501
   -4    1    1   13    6   -0.000198   -0.000920
   -4    1    1   14    6    0.000830   -0.005373
   -4    1    1    1    7    0.000251    0.000078
   -4    1    1    2    7    0.003934   -0.000569
   -4    1    1    3    7   -0.003791    0.001568
   -4    1    1    4    7   -0.001547   -0.000057
   -4    1    1    5    7    0.001165    0.000551
   -4    1    1    6    7    0.000253   -0.007104
   -4    1    1    7    7   -0.001959   -0.000516
   -4    1    1    8    7    0.000228   -0.000224
   -4    1    1    9    7   -0.000465    0.001298
   -4    1    1   10    7    0.001211   -0.002519
   -4    1    1   11    7    0.000118    0.000042
   -4    1    1   12    7    0.001173   -0.000462
   -4    1    1   13    7   -0.001274    0.005012
   -4    1    1   14    7    0.000170   -0.000092
   -4    1    1    1    8   -0.000062    0.000298
   -4    1    1    2    8    0.000048   -0.000201
   -4    1    1    3    8   -0.000282   -0.000222
   -4    1    1    4    8    0.001134    0.000654
   -4    1    1    5    8   -0.002154    0.001440
   -4    1    1    6    8   -0.000951    0.000669
   -4    1    1    7    8   -0.002601   -0.000795
   -4    1    1    8    8   -0.001101   -0.000038
   -4    1    1    9    8    0.000279    0.000342
   -4    1    1   10    8   -0.002503    0.000187
   -4    1    1   11    8    0.000058    0.000926
   -4    1    1   12    8    0.000835   -0.000433
   -4    1    1   13    8    0.007068    0.000130
   -4    1    1   14    8    0.000781   -0.001894
   -4    1    1    1    9   -0.000151    0.000074
   -4    1    1    2    9    0.000642    0.000207
   -4    1    1    3    9    0.000677   -0.001002
   -4    1    1    4    9   -0.000218   -0.000042
   -4    1    1    5    9    0.001282    0.000426
   -4    1    1    6    9    0.000548    0.002072
   -4    1    1    7    9    0.002011   -0.001291
   -4    1    1    8    9   -0.000133    0.000006
   -4    1    1    9    9    0.002509    0.001257
   -4    1    1   10    9    0.001109   -0.000542
   -4    1    1   11    9   -0.000419    0.000470
   -4    1    1   12    9    0.000332   -0.000646
   -4    1    1   13    9   -0.006356    0.000524
   -4    1    1   14    9    0.005857    0.000718
   -4    1    1    1   10    0.000654    0.000484
   -4    1    1    2   10   -0.000922    0.001048
   -4    1    1    3   10    0.000427    0.003541
   -4    1    1    4   10   -0.000557   -0.002053
   -4    1    1    5   10   -0.000087    0.000438
   -4    1    1    6   10   -0.001180   -0.001136
   -4    1    1    7   10   -0.001079    0.000749
   -4    1    1    8   10   -0.006881   -0.000154
   -4    1    1    9   10   -0.001067   -0.000269
   -4    1    1   10   10   -0.011175   -0.000318
   -4    1    1   11   10    0.000062   -0.003002
   -4    1    1   12   10   -0.004199   -0.000233
   -4    1    1   13   10    0.003235    0.000067
   -4    1    1   14   10   -0.004700   -0.000767
   -4    1    1    1   11   -0.000216   -0.000635
   -4    1    1    2   11   -0.000366    0.000350
   -4    1    1    3   11    0.000409    0.002086
   -4    1    1    4   11   -0.000293   -0.001082
   -4    1    1    5   11   -0.000842   -0.003725
   -4    1    1    6   11    0.001646    0.002428
   -4    1    1    7   11   -0.000027   -0.000296
   -4    1    1    8   11    0.000093   -0.000192
   -4    1    1    9   11   -0.000282   -0.000498
   -4    1    1   10   11   -0.000034    0.003107
   -4    1    1   11   11    0.003516   -0.000938
   -4    1    1   12   11    0.007093   -0.000053
   -4    1    1   13   11   -0.006242    0.000605
   -4    1    1   14   11    0.000837    0.000513
   -4    1    1    1   12    0.000538    0.001078
   -4    1    1    2   12    0.000189   -0.000042
   -4    1    1    3   12    0.000678    0.002755
   -4    1    1    4   12   -0.000472   -0.001530
   -4    1    1    5   12   -0.001624   -0.001556
   -4    1    1    6   12   -0.000915   -0.001111
   -4    1    1    7   12    0.001257    0.000581
   -4    1    1    8   12    0.000626   -0.000228
   -4    1    1    9   12   -0.001506   -0.000232
   -4    1    1   10   12   -0.003220   -0.000718
   -4    1    1   11   12    0.003062   -0.000514
   -4    1    1   12   12   -0.001060   -0.000766
   -4    1    1   13   12    0.002231   -0.000591
   -4    1    1   14   12    0.000714    0.000328
   -4    1    1    1   13   -0.000103   -0.000446
   -4    1    1    2   13    0.000308    0.000864
   -4    1    1    3   13    0.000079   -0.000387
   -4    1    1    4   13    0.001162    0.003154
   -4    1    1    5   13    0.001763    0.001988
   -4    1    1    6   13    0.000498    0.001525
   -4    1    1    7   13   -0.001351   -0.005929
   -4    1    1    8   13   -0.000808   -0.000253
   -4    1    1    9   13   -0.003518   -0.000002
   -4    1    1   10   13   -0.001625    0.000118
   -4    1    1   11   13   -0.002863    0.001362
   -4    1    1   12   13   -0.002369    0.001744
   -4    1    1   13   13   -0.002705    0.000188
   -4    1    1   14   13   -0.000246   -0.006709
   -4    1    1    1   14   -0.000320    0.000520
   -4    1    1    2   14   -0.001579   -0.001985
   -4    1    1    3   14    0.000279    0.000179
   -4    1    1    4   14   -0.000103   -0.000968
   -4    1    1    5   14   -0.000491   -0.001273
   -4    1    1    6   14    0.001427    0.005116
   -4    1    1    7   14   -0.000001    0.000740
   -4    1    1    8   14   -0.000433   -0.000096
   -4    1    1    9   14    0.003377    0.000544
   -4    1    1   10   14   -0.003567   -0.001524
   -4    1    1   11   14   -0.001258    0.000056
   -4    1    1   12   14    0.000952   -0.000546
   -4    1    1   13   14   -0.000274    0.007035
   -4    1    1   14   14   -0.001751    0.000541
   -4    1    2    1    1   -0.001211   -0.000000
   -4    1    2    2    1    0.001198    0.000446
   -4    1    2    3    1   -0.001038   -0.000780
   -4    1    2    4    1    0.002028    0.000353
   -4    1    2    5    1   -0.000723    0.000397
   -4    1    2    6    1    0.000130    0.000557
   -4    1    2    7    1   -0.000116    0.000704
   -4    1    2    8    1   -0.000059   -0.000434
   -4    1    2    9    1    0.000006   -0.000683
   -4    1    2   10    1    0.000089    0.000281
   -4    1    2   11    1    0.000336   -0.000494
   -4    1    2   12    1    0.000369   -0.001078
   -4    1    2   13    1    0.000793   -0.002340
   -4    1    2   14    1    0.001755    0.001173
   -4    1    2    1    2   -0.000034   -0.000110
   -4    1    2    2    2    0.003852    0.000653
   -4    1    2    3    2    0.000622   -0.001404
   -4    1    2    4    2   -0.000570   -0.000594
   -4    1    2    5    2   -0.003324    0.000017
   -4    1    2    6    2    0.003339    0.000416
   -4    1    2    7    2   -0.003451    0.000986
   -4    1    2    8    2   -0.000102    0.000333
   -4    1    2    9    2    0.000650    0.000482
   -4    1    2   10    2   -0.000023   -0.001391
   -4    1    2   11    2   -0.000823   -0.000229
   -4    1    2   12    2   -0.000084    0.000349
   -4    1    2   13    2   -0.000404    0.001805
   -4    1    2   14    2    0.000179   -0.001454
   -4    1    2    1    3    0.000066    0.000081
   -4    1    2    2    3    0.000513    0.001410
   -4    1    2    3    3    0.003811   -0.000493
   -4    1    2    4    3   -0.000278    0.002944
   -4    1    2    5    3    0.003130   -0.001013
   -4    1    2    6    3   -0.002728   -0.000026
   -4    1    2    7    3   -0.003196   -0.000471
   -4    1    2    8    3   -0.000826    0.000314
   -4    1    2    9    3    0.000770    0.001160
   -4    1    2   10    3    0.000076    0.000352
   -4    1    2   11    3    0.000909   -0.002581
   -4    1    2   12    3   -0.000505    0.001144
   -4    1    2   13    3    0.000610   -0.000688
   -4    1    2   14    3    0.000510   -0.001645
   -4    1    2    1    4    0.006760   -0.000331
   -4    1    2    2    4    0.000755    0.001225
   -4    1    2    3    4    0.000331   -0.003062
   -4    1    2    4    4   -0.009958   -0.000081
   -4    1    2    5    4   -0.003107   -0.000930
   -4    1    2    6    4   -0.002975    0.000745
   -4    1    2    7    4   -0.003206    0.000051
   -4    1    2    8    4   -0.000025   -0.000268
   -4    1    2    9    4    0.001219    0.000478
   -4    1    2   10    4   -0.000836    0.002086
   -4    1    2   11    4    0.000066   -0.003258
   -4    1    2   12    4    0.000081   -0.002396
   -4    1    2   13    4   -0.000082   -0.002129
   -4    1    2   14    4   -0.000119    0.000047
   -4    1    2    1    5    0.001601   -0.000899
   -4    1    2    2    5   -0.001829   -0.000537
   -4    1    2    3    5    0.000564   -0.000943
   -4    1    2    4    5   -0.002741   -0.000183
   -4    1    2    5    5   -0.001966   -0.000647
   -4    1    2    6    5   -0.001295   -0.003488
   -4    1    2    7    5   -0.002347   -0.002692
   -4    1    2    8    5   -0.001124   -0.000840
   -4    1    2    9    5   -0.000093   -0.001392
   -4    1    2   10    5   -0.000466    0.001047
   -4    1    2   11    5    0.000281    0.000104
   -4    1    2   12    5   -0.001067   -0.000265
   -4    1    2   13    5   -0.000506   -0.003775
   -4    1    2   14    5   -0.001787   -0.000021
   -4    1    2    1    6    0.001529    0.001037
   -4    1    2    2    6    0.004367    0.001328
   -4    1    2    3    6    0.000437    0.001416
   -4    1    2    4    6   -0.003051    0.001038
   -4    1    2    5    6   -0.001331    0.003604
   -4    1    2    6    6   -0.002253    0.000132
   -4    1    2    7    6   -0.000139    0.007184
   -4    1    2    8    6    0.000620    0.001053
   -4    1    2    9    6    0.000560    0.001549
   -4    1    2   10    6   -0.000083   -0.000864
   -4    1    2   11    6   -0.001428   -0.000128
   -4    1    2   12    6   -0.000555    0.002959
   -4    1    2   13    6   -0.000600    0.000637
   -4    1    2   14    6    0.002107   -0.003912
   -4    1    2    1    7    0.003029   -0.000354
   -4    1    2    2    7   -0.000324   -0.000458
   -4    1    2    3    7    0.000171   -0.000504
   -4    1    2    4    7   -0.002270   -0.000860
   -4    1    2    5    7    0.002101    0.001609
   -4    1    2    6    7   -0.000232   -0.006717
   -4    1    2    7    7   -0.004089    0.000582
   -4    1    2    8    7   -0.001254    0.000622
   -4    1    2    9    7   -0.000188   -0.001841
   -4    1    2   10    7    0.000728   -0.001055
   -4    1    2   11    7    0.000030    0.001822
   -4    1    2   12    7    0.001445    0.000410
   -4    1    2   13    7   -0.002073    0.003982
   -4    1    2   14    7    0.000609   -0.000805
   -4    1    2    1    8   -0.000050    0.000299
   -4    1    2    2    8    0.000320   -0.000831
   -4    1    2    3    8    0.000329    0.000830
   -4    1    2    4    8    0.000383   -0.000405
   -4    1    2    5    8   -0.000975    0.000469
   -4    1    2    6    8   -0.000416   -0.000718
   -4    1    2    7    8   -0.000102   -0.000153
   -4    1    2    8    8   -0.001106   -0.000004
   -4    1    2    9    8   -0.001203   -0.000451
   -4    1    2   10    8    0.001012    0.000839
   -4    1    2   11    8    0.002464   -0.000361
   -4    1    2   12    8    0.000913   -0.000458
   -4    1    2   13    8    0.000011   -0.000564
   -4    1    2   14    8   -0.000060   -0.000664
   -4    1    2    1    9    0.000461    0.000235
   -4    1    2    2    9    0.000484    0.000209
   -4    1    2    3    9    0.000376   -0.001429
   -4    1    2    4    9    0.000406   -0.000326
   -4    1    2    5    9   -0.000428    0.000010
   -4    1    2    6    9   -0.000331   -0.001538
   -4    1    2    7    9   -0.000056    0.001128
   -4    1    2    8    9    0.000009    0.000152
   -4    1    2    9    9    0.003266   -0.000633
   -4    1    2   10    9    0.000313    0.001470
   -4    1    2   11    9    0.000571    0.000547
   -4    1    2   12    9   -0.002802    0.000012
   -4    1    2   13    9    0.003506   -0.000403
   -4    1    2   14    9   -0.003230   -0.000897
   -4    1    2    1   10   -0.000359   -0.000564
   -4    1    2    2   10   -0.000108    0.001275
   -4    1    2    3   10    0.000212   -0.000584
   -4    1    2    4   10   -0.001028   -0.002556
   -4    1    2    5   10    0.000043   -0.001564
   -4    1    2    6   10    0.000480    0.000459
   -4    1    2    7   10    0.000991    0.002360
   -4    1    2    8   10   -0.000014   -0.000112
   -4    1    2    9   10    0.000424   -0.001454
   -4    1    2   10   10    0.003090    0.000490
   -4    1    2   11   10    0.000286   -0.003013
   -4    1    2   12   10    0.003627    0.000941
   -4    1    2   13   10   -0.003449   -0.000007
   -4    1    2   14   10   -0.003624    0.000506
   -4    1    2    1   11   -0.000041   -0.000035
   -4    1    2    2   11   -0.000623    0.000316
   -4    1    2    3   11    0.000969    0.002561
   -4    1    2    4   11    0.000092    0.002933
   -4    1    2    5   11    0.001131    0.001487
   -4    1    2    6   11   -0.000628   -0.000209
   -4    1    2    7   11    0.000228    0.000213
   -4    1    2    8   11    0.006869    0.000304
   -4    1    2    9   11   -0.000758   -0.001246
   -4    1    2   10   11   -0.000318    0.003119
   -4    1    2   11   11   -0.011468    0.000123
   -4    1    2   12   11   -0.003797    0.000980
   -4    1    2   13   11   -0.003821   -0.000709
   -4    1    2   14   11   -0.002976    0.000022
   -4    1    2    1   12    0.001332   -0.001151
   -4    1    2    2   12   -0.000089    0.000596
   -4    1    2    3   12    0.000623   -0.001942
   -4    1    2    4   12   -0.002034    0.001652
   -4    1    2    5   12   -0.000778   -0.001567
   -4    1    2    6   12   -0.000350   -0.003038
   -4    1    2    7   12   -0.000940    0.000070
   -4    1    2    8   12    0.002499    0.000915
   -4    1    2    9   12    0.000384    0.000560
   -4    1    2   10   12    0.003694    0.001084
   -4    1    2   11   12   -0.001323    0.000213
   -4    1    2   12   12   -0.001677    0.000690
   -4    1    2   13   12   -0.000866    0.003493
   -4    1    2   14   12    0.002339    0.002757
   -4    1    2    1   13   -0.002175   -0.000351
   -4    1    2    2   13   -0.001164   -0.002204
   -4    1    2    3   13   -0.001017    0.000022
   -4    1    2    4   13    0.001317    0.001610
   -4    1    2    5   13   -0.000843    0.003112
   -4    1    2    6   13   -0.000438    0.000188
   -4    1    2    7   13   -0.002865   -0.004575
   -4    1    2    8   13    0.002590   -0.001054
   -4    1    2    9   13   -0.000118   -0.001440
   -4    1    2   10   13   -0.001807   -0.001312
   -4    1    2   11   13   -0.001101   -0.001117
   -4    1    2   12   13   -0.000784   -0.003622
   -4    1    2   13   13   -0.001373   -0.000155
   -4    1    2   14   13    0.000149   -0.007110
   -4    1    2    1   14   -0.000384    0.001199
   -4    1    2    2   14    0.000929    0.000369
   -4    1    2    3   14   -0.000669    0.001045
   -4    1    2    4   14    0.000849    0.000308
   -4    1    2    5   14    0.001539    0.000584
   -4    1    2    6   14    0.002445    0.004452
   -4    1    2    7   14    0.000129    0.002061
   -4    1    2    8   14    0.004203    0.000368
   -4    1    2    9   14   -0.001287    0.000459
   -4    1    2   10   14   -0.001806    0.000507
   -4    1    2   11   14   -0.002424    0.000756
   -4    1    2   12   14   -0.002054   -0.001651
   -4    1    2   13   14    0.000188    0.006704
   -4    1    2   14   14   -0.002453   -0.000555
   -4    2    0    1    1   -0.003450    0.000038
   -4    2    0    2    1   -0.001007    0.000205
   -4    2    0    3    1    0.001016    0.000174
   -4    2    0    4    1    0.001051    0.000583
   -4    2    0    5    1   -0.002379   -0.000229
   -4    2    0    6    1    0.000523    0.000889
   -4    2    0    7    1    0.000287   -0.000959
   -4    2    0    8    1   -0.000372   -0.001178
   -4    2    0    9    1   -0.000211    0.000107
   -4    2    0   10    1    0.000818    0.000782
   -4    2    0   11    1    0.000592   -0.000302
   -4    2    0   12    1    0.000310   -0.001046
   -4    2    0   13    1    0.000438    0.000079
   -4    2    0   14    1    0.000869    0.000631
   -4    2    0    1    2   -0.002412    0.000101
   -4    2    0    2    2    0.006710    0.000231
   -4    2    0    3    2    0.001742   -0.001020
   -4    2    0    4    2    0.000410    0.002637
   -4    2    0    5    2    0.006222   -0.000743
   -4    2    0    6    2    0.002966    0.000995
   -4    2    0    7    2    0.003493   -0.001313
   -4    2    0    8    2   -0.000326    0.000054
   -4    2    0    9    2   -0.000305    0.002658
   -4    2    0   10    2    0.000012   -0.001995
   -4    2    0   11    2    0.004137    0.000380
   -4    2    0   12    2   -0.000289    0.001713
   -4    2    0   13    2    0.000682    0.001627
   -4    2    0   14    2   -0.001168    0.001458
   -4    2    0    1    3    0.002538    0.000028
   -4    2    0    2    3    0.000033    0.001268
   -4    2    0    3    3    0.006386   -0.000055
   -4    2    0    4    3   -0.001214   -0.002238
   -4    2    0    5    3    0.001966   -0.000688
   -4    2    0    6    3   -0.001781   -0.000374
   -4    2    0    7    3    0.005337    0.000430
   -4    2    0    8    3   -0.001086   -0.000111
   -4    2    0    9    3   -0.000145    0.002473
   -4    2    0   10    3   -0.000930    0.003139
   -4    2    0   11    3    0.004019   -0.002383
   -4    2    0   12    3   -0.000633   -0.000573
   -4    2    0   13    3    0.000217   -0.000114
   -4    2    0   14    3   -0.001367    0.001964
   -4    2    0    1    4    0.002269   -0.001195
   -4    2    0    2    4    0.001900   -0.002614
   -4    2    0    3    4   -0.000840    0.002222
   -4    2    0    4    4    0.006054   -0.000190
   -4    2    0    5    4    0.001550    0.001153
   -4    2    0    6    4    0.005237   -0.000171
   -4    2    0    7    4   -0.002127    0.001143
   -4    2    0    8    4    0.000301   -0.000406
   -4    2    0    9    4   -0.003889    0.000081
   -4    2    0   10    4   -0.003820    0.001754
   -4    2    0   11    4    0.000310    0.001950
   -4    2    0   12    4    0.000845    0.000285
   -4    2    0   13    4    0.002218   -0.001285
   -4    2    0   14    4    0.000227   -0.000907
   -4    2    0    1    5    0.003020    0.000626
   -4    2    0    2    5   -0.002437    0.000181
   -4    2    0    3    5   -0.000531    0.000197
   -4    2    0    4    5   -0.000070   -0.000506
   -4    2    0    5    5    0.001944    0.000005
   -4    2    0    6    5    0.001014   -0.001818
   -4    2    0    7    5   -0.003134    0.005444
   -4    2    0    8    5   -0.000572   -0.000451
   -4    2    0    9    5    0.000532    0.001605
   -4    2    0   10    5   -0.000921    0.003874
   -4    2    0   11    5   -0.000960    0.001139
   -4    2    0   12    5    0.000619    0.000666
   -4    2    0   13    5   -0.000966   -0.002093
   -4    2    0   14    5    0.007178   -0.000325
   -4    2    0    1    6   -0.002251   -0.000150
   -4    2    0    2    6    0.003261   -0.000564
   -4    2    0    3    6   -0.000807   -0.000103
   -4    2    0    4    6    0.002273    0.000526
   -4    2    0    5    6   -0.003212    0.002746
   -4    2    0    6    6    0.002317    0.000180
   -4    2    0    7    6    0.001041   -0.005881
   -4    2    0    8    6    0.000656   -0.000464
   -4    2    0    9    6    0.001674   -0.002805
   -4    2    0   10    6   -0.000247   -0.001167
   -4    2    0   11    6   -0.001511    0.001857
   -4    2    0   12    6    0.000319    0.003058
   -4    2    0   13    6    0.000932   -0.000001
   -4    2    0   14    6    0.007059   -0.003737
   -4    2    0    1    7   -0.001264    0.000937
   -4    2    0    2    7    0.002944    0.000360
   -4    2    0    3    7    0.002402   -0.001460
   -4    2    0    4    7   -0.000615    0.000063
   -4    2    0    5    7    0.000742   -0.005452
   -4    2    0    6    7    0.001264    0.005613
   -4    2    0    7    7    0.002520   -0.000281
   -4    2    0    8    7   -0.000008   -0.000773
   -4    2    0    9    7    0.000135    0.001311
   -4    2    0   10    7    0.001295    0.000312
   -4    2    0   11    7   -0.000556   -0.000783
   -4    2    0   12    7   -0.008055    0.001294
   -4    2    0   13    7   -0.006124    0.002727
   -4    2    0   14    7   -0.000013    0.001122
   -4    2    0    1    8   -0.000316    0.001314
   -4    2    0    2    8   -0.001004   -0.001221
   -4    2    0    3    8    0.000699    0.000530
   -4    2    0    4    8   -0.000390    0.001707
   -4    2    0    5    8    0.000130    0.002264
   -4    2    0    6    8   -0.000251    0.000094
   -4    2    0    7    8    0.001023    0.000435
   -4    2    0    8    8   -0.003378   -0.000026
   -4    2    0    9    8   -0.001730   -0.000152
   -4    2    0   10    8    0.001695   -0.000251
   -4    2    0   11    8    0.001694   -0.000542
   -4    2    0   12    8   -0.000685    0.000213
   -4    2    0   13    8   -0.001570   -0.000806
   -4    2    0   14    8   -0.001262    0.000854
   -4    2    0    1    9    0.000416   -0.000589
   -4    2    0    2    9   -0.000386   -0.002609
   -4    2    0    3    9    0.000974   -0.002532
   -4    2    0    4    9   -0.004080   -0.000597
   -4    2    0    5    9    0.000579   -0.001561
   -4    2    0    6    9    0.000531   -0.000881
   -4    2    0    7    9    0.001290   -0.003155
   -4    2    0    8    9   -0.003172   -0.000112
   -4    2    0    9    9    0.007287   -0.000180
   -4    2    0   10    9   -0.000093    0.001138
   -4    2    0   11    9    0.001301   -0.002776
   -4    2    0   12    9    0.006027    0.000708
   -4    2    0   13    9    0.002169   -0.000988
   -4    2    0   14    9    0.001495    0.001432
   -4    2    0    1   10   -0.000984    0.000394
   -4    2    0    2   10   -0.000741    0.001387
   -4    2    0    3   10   -0.000788   -0.003410
   -4    2    0    4   10    0.000992    0.003563
   -4    2    0    5   10   -0.000957   -0.001785
   -4    2    0    6   10    0.000081    0.001262
   -4    2    0    7   10   -0.000961   -0.001489
   -4    2    0    8   10    0.003078   -0.000009
   -4    2    0    9   10    0.001606   -0.001175
   -4    2    0   10   10    0.007609   -0.000081
   -4    2    0   11   10   -0.000486    0.002257
   -4    2    0   12   10    0.003356    0.000628
   -4    2    0   13   10   -0.002051    0.000399
   -4    2    0   14   10    0.004439   -0.000363
   -4    2    0    1   11    0.001196    0.000772
   -4    2    0    2   11    0.003729   -0.000976
   -4    2    0    3   11   -0.000979   -0.002187
   -4    2    0    4   11    0.000250   -0.001981
   -4    2    0    5   11   -0.001571    0.002651
   -4    2    0    6   11    0.000897    0.000467
   -4    2    0    7   11   -0.000550   -0.000580
   -4    2    0    8   11    0.003310    0.001189
   -4    2    0    9   11   -0.000176    0.002533
   -4    2    0   10   11   -0.000800   -0.002292
   -4    2    0   11   11    0.008047    0.000334
   -4    2    0   12   11    0.003804   -0.001027
   -4    2    0   13   11    0.004596    0.000144
   -4    2    0   14   11   -0.001627   -0.001196
   -4    2    0    1   12   -0.001662    0.000211
   -4    2    0    2   12   -0.000058   -0.000115
   -4    2    0    3   12   -0.000699    0.000095
   -4    2    0    4   12    0.001503    0.000441
   -4    2    0    5   12    0.000436   -0.000589
   -4    2    0    6   12    0.001106   -0.001795
   -4    2    0    7   12   -0.008571   -0.001135
   -4    2    0    8   12    0.004238   -0.000613
   -4    2    0    9   12   -0.002275   -0.000177
   -4    2    0   10   12    0.002173   -0.000233
   -4    2    0   11   12    0.001775    0.000558
   -4    2    0   12   12    0.001434    0.000027
   -4    2    0   13   12   -0.002323    0.001795
   -4    2    0   14   12    0.001840   -0.005423
   -4    2    0    1   13    0.002018    0.001465
   -4    2    0    2   13    0.002292   -0.000640
   -4    2    0    3   13   -0.000035    0.000488
   -4    2    0    4   13    0.000226   -0.002547
   -4    2    0    5   13   -0.001860    0.002678
   -4    2    0    6   13    0.001202   -0.000250
   -4    2    0    7   13    0.002814    0.005528
   -4    2    0    8   13   -0.001861    0.000166
   -4    2    0    9   13    0.000790    0.000429
   -4    2    0   10   13   -0.000603    0.000096
   -4    2    0   11   13    0.002106   -0.000496
   -4    2    0   12   13    0.001884   -0.002714
   -4    2    0   13   13    0.001109   -0.000158
   -4    2    0   14   13    0.000259    0.005811
   -4    2    0    1   14   -0.000712   -0.001298
   -4    2    0    2   14   -0.001862   -0.003405
   -4    2    0    3   14    0.000856   -0.001272
   -4    2    0    4   14   -0.000254    0.000531
   -4    2    0    5   14    0.007059    0.000786
   -4    2    0    6   14   -0.002027   -0.005974
   -4    2    0    7   14   -0.000074   -0.001184
   -4    2    0    8   14   -0.002830   -0.000904
   -4    2    0    9   14    0.001063   -0.000155
   -4    2    0   10   14    0.001826    0.001417
   -4    2    0   11   14   -0.000798   -0.000125
   -4    2    0   12   14   -0.002004    0.005387
   -4    2    0   13   14    0.000053   -0.005547
   -4    2    0   14   14    0.000735    0.000360
   -4    2    1    1    1   -0.001185    0.000021
   -4    2    1    2    1    0.001987    0.000264
   -4    2    1    3    1   -0.000006   -0.000380
   -4    2    1    4    1   -0.000010   -0.000195
   -4    2    1    5    1    0.000103    0.000662
   -4    2    1    6    1    0.000134    0.000247
   -4    2    1    7    1   -0.000402    0.000706
   -4    2    1    8    1   -0.000086   -0.000407
   -4    2    1    9    1    0.000205    0.000309
   -4    2    1   10    1   -0.000701   -0.000022
   -4    2    1   11    1    0.000529   -0.000234
   -4    2    1   12    1    0.001284    0.000392
   -4    2    1   13    1    0.000385   -0.001030
   -4    2    1   14    1    0.000405   -0.000611
   -4    2    1    1    2    0.006612   -0.000252
   -4    2    1    2    2   -0.010131    0.000266
   -4    2    1    3    2    0.000166    0.000258
   -4    2    1    4    2   -0.000146   -0.000036
   -4    2    1    5    2   -0.003078   -0.000299
   -4    2    1    6    2   -0.003201    0.000034
   -4    2    1    7    2   -0.003335   -0.000220
   -4    2    1    8    2   -0.000097   -0.000451
   -4    2    1    9    2    0.000180   -0.003062
   -4    2    1   10    2    0.000960   -0.001639
   -4    2    1   11    2   -0.000104    0.000200
   -4    2    1   12    2    0.000017   -0.000213
   -4    2    1   13    2    0.000247   -0.001171
   -4    2    1   14    2   -0.000505   -0.001450
   -4    2    1    1    3   -0.000155   -0.000306
   -4    2    1    2    3   -0.000133    0.000262
   -4    2    1    3    3    0.003922   -0.000838
   -4    2    1    4    3    0.000716   -0.000271
   -4    2    1    5    3   -0.002953    0.000115
   -4    2    1    6    3   -0.003171    0.000701
   -4    2    1    7    3    0.003064   -0.000456
   -4    2    1    8    3    0.000114   -0.000397
   -4    2    1    9    3   -0.000824    0.001953
   -4    2    1   10    3    0.001017   -0.000245
   -4    2    1   11    3    0.001087   -0.001009
   -4    2    1   12    3    0.000035   -0.002765
   -4    2    1   13    3   -0.000157    0.000542
   -4    2    1   14    3   -0.000682    0.002217
   -4    2    1    1    4    0.000159    0.000131
   -4    2    1    2    4    0.000116   -0.000096
   -4    2    1    3    4    0.000455    0.000490
   -4    2    1    4    4    0.003916    0.000666
   -4    2    1    5    4   -0.003147    0.000289
   -4    2    1    6    4    0.003231   -0.000007
   -4    2    1    7    4   -0.003026   -0.000405
   -4    2    1    8    4   -0.000660    0.000229
   -4    2    1    9    4    0.000369   -0.000453
   -4    2    1   10    4   -0.000548    0.000557
   -4    2    1   11    4   -0.000361    0.000855
   -4    2    1   12    4    0.000858   -0.001772
   -4    2    1   13    4   -0.000335    0.001252
   -4    2    1   14    4    0.000476   -0.000546
   -4    2    1    1    5    0.003009   -0.000220
   -4    2    1    2    5   -0.002450   -0.000591
   -4    2    1    3    5    0.000462   -0.000697
   -4    2    1    4    5    0.000145   -0.000355
   -4    2    1    5    5   -0.003635    0.000316
   -4    2    1    6    5    0.000127   -0.000253
   -4    2    1    7    5   -0.000134   -0.000776
   -4    2    1    8    5   -0.000894   -0.000868
   -4    2    1    9    5    0.000064    0.001145
   -4    2    1   10    5    0.000276   -0.003346
   -4    2    1   11    5   -0.000141   -0.001726
   -4    2    1   12    5    0.000693   -0.001582
   -4    2    1   13    5    0.000660   -0.004257
   -4    2    1   14    5   -0.001421   -0.000026
   -4    2    1    1    6    0.002085    0.001184
   -4    2    1    2    6   -0.003040    0.000473
   -4    2    1    3    6   -0.000656    0.000434
   -4    2    1    4    6    0.002600    0.000532
   -4    2    1    5    6   -0.000123   -0.000238
   -4    2    1    6    6   -0.002097    0.000965
   -4    2    1    7    6   -0.001296   -0.001199
   -4    2    1    8    6   -0.000695    0.000235
   -4    2    1    9    6   -0.000675    0.000903
   -4    2    1   10    6    0.000283   -0.000965
   -4    2    1   11    6   -0.000023    0.001485
   -4    2    1   12    6   -0.000429    0.004209
   -4    2    1   13    6   -0.001456    0.000830
   -4    2    1   14    6    0.000777   -0.000856
   -4    2    1    1    7    0.001388   -0.000630
   -4    2    1    2    7   -0.003218    0.000469
   -4    2    1    3    7    0.002080   -0.000416
   -4    2    1    4    7   -0.000767    0.000311
   -4    2    1    5    7    0.000123    0.001028
   -4    2    1    6    7   -0.001317    0.001289
   -4    2    1    7    7   -0.002528   -0.001208
   -4    2    1    8    7   -0.000802    0.000828
   -4    2    1    9    7    0.000241   -0.000230
   -4    2    1   10    7    0.000665    0.001821
   -4    2    1   11    7   -0.000608   -0.000503
   -4    2    1   12    7    0.001176   -0.000122
   -4    2    1   13    7   -0.001997    0.000668
   -4    2    1   14    7   -0.000272    0.000262
   -4    2    1    1    8   -0.000074    0.000265
   -4    2    1    2    8    0.000875    0.000660
   -4    2    1    3    8    0.000038   -0.000448
   -4    2    1    4    8    0.000296    0.000230
   -4    2    1    5    8   -0.000007   -0.000032
   -4    2    1    6    8   -0.000152    0.001355
   -4    2    1    7    8   -0.000825   -0.000558
   -4    2    1    8    8   -0.001123   -0.000008
   -4    2    1    9    8    0.002510   -0.000301
   -4    2    1   10    8   -0.000030    0.000356
   -4    2    1   11    8    0.000019    0.000184
   -4    2    1   12    8   -0.000287   -0.000667
   -4    2    1   13    8    0.000082   -0.000344
   -4    2    1   14    8    0.000520   -0.000686
   -4    2    1    1    9   -0.000010   -0.000418
   -4    2    1    2    9    0.000416    0.003589
   -4    2    1    3    9    0.000494   -0.001531
   -4    2    1    4    9   -0.000541    0.000128
   -4    2    1    5    9    0.000181    0.000089
   -4    2    1    6    9    0.000986    0.002228
   -4    2    1    7    9    0.000709    0.001005
   -4    2    1    8    9    0.007005    0.000241
   -4    2    1    9    9   -0.011204   -0.000318
   -4    2    1   10    9   -0.000167   -0.000242
   -4    2    1   11    9    0.000175    0.000061
   -4    2    1   12    9   -0.003135    0.000386
   -4    2    1   13    9   -0.003668   -0.000008
   -4    2    1   14    9   -0.003384    0.000197
   -4    2    1    1   10    0.000279    0.000075
   -4    2    1    2   10   -0.000706    0.001596
   -4    2    1    3   10    0.001171    0.000555
   -4    2    1    4   10   -0.000301   -0.000461
   -4    2    1    5   10    0.000228    0.000071
   -4    2    1    6   10   -0.000483   -0.000297
   -4    2    1    7   10    0.000448   -0.000712
   -4    2    1    8   10    0.000153    0.000324
   -4    2    1    9   10    0.000109   -0.000299
   -4    2    1   10   10    0.003068    0.000846
   -4    2    1   11   10    0.000250    0.000389
   -4    2    1   12   10   -0.003744   -0.000052
   -4    2    1   13   10   -0.002942   -0.000668
   -4    2    1   14   10    0.003700    0.000397
   -4    2    1    1   11   -0.000390   -0.000226
   -4    2    1    2   11    0.000549   -0.000078
   -4    2    1    3   11    0.000498    0.000012
   -4    2    1    4   11   -0.000769   -0.001523
   -4    2    1    5   11    0.000018    0.001268
   -4    2    1    6   11   -0.000500   -0.001785
   -4    2    1    7   11    0.000593    0.000888
   -4    2    1    8   11   -0.000128   -0.000161
   -4    2    1    9   11   -0.000117    0.000125
   -4    2    1   10   11    0.000472   -0.000537
   -4    2    1   11   11    0.002980   -0.000697
   -4    2    1   12   11   -0.003736   -0.000334
   -4    2    1   13   11    0.003605    0.000021
   -4    2    1   14   11   -0.003239    0.000384
   -4    2    1    1   12   -0.001194   -0.000102
   -4    2    1    2   12    0.000407   -0.000567
   -4    2    1    3   12    0.000598    0.000173
   -4    2    1    4   12   -0.001708   -0.000647
   -4    2    1    5   12   -0.000176    0.001109
   -4    2    1    6   12    0.002673   -0.004069
   -4    2    1    7   12   -0.001634   -0.000262
   -4    2    1    8   12    0.004215    0.000247
   -4    2    1    9   12   -0.002261    0.000534
   -4    2    1   10   12   -0.002078    0.000629
   -4    2    1   11   12   -0.001790    0.000382
   -4    2    1   12   12   -0.002966   -0.000333
   -4    2    1   13   12   -0.000100    0.000212
   -4    2    1   14   12    0.000108    0.000766
   -4    2    1    1   13   -0.000307    0.000002
   -4    2    1    2   13   -0.002546   -0.000120
   -4    2    1    3   13   -0.000232    0.000970
   -4    2    1    4   13    0.000473   -0.001739
   -4    2    1    5   13   -0.002725    0.004362
   -4    2    1    6   13   -0.001856   -0.001982
   -4    2    1    7   13   -0.001570   -0.000125
   -4    2    1    8   13    0.002025   -0.001154
   -4    2    1    9   13   -0.000979   -0.000378
   -4    2    1   10   13   -0.000762   -0.000416
   -4    2    1   11   13    0.001764   -0.000524
   -4    2    1   12   13    0.000104    0.000277
   -4    2    1   13   13   -0.001387   -0.000904
   -4    2    1   14   13   -0.000900    0.001244
   -4    2    1    1   14    0.000118    0.000618
   -4    2    1    2   14    0.002649    0.003388
   -4    2    1    3   14   -0.000576   -0.001210
   -4    2    1    4   14   -0.000520    0.000555
   -4    2    1    5   14    0.001415   -0.000328
   -4    2    1    6   14    0.000700    0.000804
   -4    2    1    7   14    0.000982    0.001554
   -4    2    1    8   14    0.002713    0.000615
   -4    2    1    9   14   -0.000873   -0.000621
   -4    2    1   10   14    0.002143    0.000411
   -4    2    1   11   14   -0.000632   -0.000272
   -4    2    1   12   14   -0.000122   -0.000968
   -4    2    1   13   14   -0.000763   -0.001325
   -4    2    1   14   14   -0.001094    0.001119
   -4    2    2    1    1   -0.003442    0.000022
   -4    2    2    2    1   -0.001028   -0.000305
   -4    2    2    3    1   -0.000682    0.000509
   -4    2    2    4    1   -0.001424   -0.000230
   -4    2    2    5    1    0.000094   -0.000075
   -4    2    2    6    1    0.000368    0.001185
   -4    2    2    7    1   -0.000156    0.000315
   -4    2    2    8    1   -0.000293   -0.001151
   -4    2    2    9    1   -0.000224   -0.000298
   -4    2    2   10    1    0.000159    0.000054
   -4    2    2   11    1   -0.000666    0.000397
   -4    2    2   12    1    0.000997    0.000132
   -4    2    2   13    1    0.001544    0.000102
   -4    2    2   14    1    0.000452    0.002220
   -4    2    2    1    2   -0.002400    0.000601
   -4    2    2    2    2    0.006737   -0.000183
   -4    2    2    3    2    0.000277    0.002559
   -4    2    2    4    2   -0.002435   -0.000952
   -4    2    2    5    2   -0.003083    0.000018
   -4    2    2    6    2    0.003128   -0.001008
   -4    2    2    7    2    0.003418    0.000002
   -4    2    2    8    2   -0.000332    0.000450
   -4    2    2    9    2   -0.000339    0.002574
   -4    2    2   10    2   -0.001006    0.001102
   -4    2    2   11    2    0.001186    0.000288
   -4    2    2   12    2    0.000106   -0.000117
   -4    2    2   13    2   -0.000253    0.002330
   -4    2    2   14    2   -0.000221    0.001336
   -4    2    2    1    3   -0.002511   -0.000179
   -4    2    2    2    3   -0.002153   -0.002654
   -4    2    2    3    3    0.005502    0.000046
   -4    2    2    4    3   -0.000935   -0.002339
   -4    2    2    5    3    0.003423    0.000357
   -4    2    2    6    3   -0.003461    0.000283
   -4    2    2    7    3    0.003029   -0.000739
   -4    2    2    8    3   -0.000267    0.000131
   -4    2    2    9    3    0.001138   -0.001504
   -4    2    2   10    3   -0.000692    0.003045
   -4    2    2   11    3    0.001273    0.000507
   -4    2    2   12    3   -0.000478    0.001580
   -4    2    2   13    3   -0.000027    0.000249
   -4    2    2   14    3   -0.000373    0.002316
   -4    2    2    1    4   -0.002307    0.000562
   -4    2    2    2    4    0.000226    0.001244
   -4    2    2    3    4   -0.001118    0.002422
   -4    2    2    4    4    0.006934    0.000140
   -4    2    2    5    4    0.002686   -0.000737
   -4    2    2    6    4    0.003306    0.000198
   -4    2    2    7    4   -0.002720   -0.000404
   -4    2    2    8    4   -0.000531   -0.000284
   -4    2    2    9    4   -0.000975   -0.001001
   -4    2    2   10    4   -0.001153   -0.001127
   -4    2    2   11    4   -0.000017    0.002041
   -4    2    2   12    4   -0.000095    0.002242
   -4    2    2   13    4   -0.000164    0.001452
   -4    2    2   14    4    0.000198   -0.000326
   -4    2    2    1    5   -0.002215    0.000004
   -4    2    2    2    5    0.002254   -0.000099
   -4    2    2    3    5    0.000303   -0.000282
   -4    2    2    4    5    0.001067    0.000908
   -4    2    2    5    5    0.001923    0.000129
   -4    2    2    6    5    0.002433    0.004362
   -4    2    2    7    5   -0.000323   -0.001288
   -4    2    2    8    5    0.000643   -0.000991
   -4    2    2    9    5   -0.000085   -0.000450
   -4    2    2   10    5    0.000173    0.001616
   -4    2    2   11    5   -0.000749   -0.001150
   -4    2    2   12    5    0.000513    0.000600
   -4    2    2   13    5   -0.002434    0.002467
   -4    2    2   14    5    0.003597    0.000178
   -4    2    2    1    6   -0.002436   -0.001805
   -4    2    2    2    6    0.001308    0.000655
   -4    2    2    3    6    0.002575   -0.000287
   -4    2    2    4    6    0.001165    0.000044
   -4    2    2    5    6   -0.000334   -0.004345
   -4    2    2    6    6    0.003101    0.000016
   -4    2    2    7    6    0.001036   -0.005852
   -4    2    2    8    6    0.000576   -0.001976
   -4    2    2    9    6   -0.000078   -0.000608
   -4    2    2   10    6   -0.000127   -0.000564
   -4    2    2   11    6   -0.000432    0.000953
   -4    2    2   12    6    0.003469   -0.003410
   -4    2    2   13    6    0.000975    0.000353
   -4    2    2   14    6    0.002817    0.000898
   -4    2    2    1    7   -0.002003    0.000164
   -4    2    2    2    7    0.000912   -0.000107
   -4    2    2    3    7    0.000632    0.000402
   -4    2    2    4    7    0.002461    0.000217
   -4    2    2    5    7    0.002803    0.001090
   -4    2    2    6    7    0.001269    0.005747
   -4    2    2    7    7    0.001735   -0.000251
   -4    2    2    8    7    0.000391   -0.001494
   -4    2    2    9    7   -0.000012    0.001855
   -4    2    2   10    7    0.000000   -0.000092
   -4    2    2   11    7   -0.000051   -0.000481
   -4    2    2   12    7   -0.002288   -0.001029
   -4    2    2   13    7   -0.001680   -0.001740
   -4    2    2   14    7    0.000061    0.000824
   -4    2    2    1    8   -0.000369    0.001365
   -4    2    2    2    8   -0.000663   -0.001237
   -4    2    2    3    8   -0.000885   -0.000810
   -4    2    2    4    8   -0.000313   -0.000725
   -4    2    2    5    8    0.000203   -0.000393
   -4    2    2    6    8    0.000158   -0.000104
   -4    2    2    7    8    0.000657    0.000959
   -4    2    2    8    8   -0.003394    0.000000
   -4    2    2    9    8   -0.001689    0.000330
   -4    2    2   10    8   -0.002047   -0.000557
   -4    2    2   11    8   -0.001309    0.000252
   -4    2    2   12    8   -0.000257    0.000017
   -4    2    2   13    8   -0.000560   -0.001208
   -4    2    2   14    8    0.000000   -0.000388
   -4    2    2    1    9   -0.000049   -0.000640
   -4    2    2    2    9   -0.000303   -0.002728
   -4    2    2    3    9   -0.004364   -0.000622
   -4    2    2    4    9    0.004780    0.003515
   -4    2    2    5    9    0.000109    0.000132
   -4    2    2    6    9    0.000530    0.000121
   -4    2    2    7    9   -0.000838   -0.002331
   -4    2    2    8    9   -0.003152   -0.000618
   -4    2    2    9    9    0.007250    0.000174
   -4    2    2   10    9   -0.001957   -0.002546
   -4    2    2   11    9    0.000748    0.000990
   -4    2    2   12    9   -0.003087   -0.000025
   -4    2    2   13    9    0.003734    0.000955
   -4    2    2   14    9    0.003296    0.000052
   -4    2    2    1   10    0.000465   -0.000599
   -4    2    2    2   10    0.004463    0.001814
   -4    2    2    3   10   -0.000705   -0.003009
   -4    2    2    4   10   -0.001856    0.000768
   -4    2    2    5   10   -0.000759   -0.002313
   -4    2    2    6   10   -0.000424    0.000042
   -4    2    2    7   10    0.000536    0.000123
   -4    2    2    8   10   -0.003084    0.000166
   -4    2    2    9   10    0.000484    0.002632
   -4    2    2   10   10    0.008486    0.000116
   -4    2    2   11   10   -0.000780    0.002400
   -4    2    2   12   10    0.003318   -0.000281
   -4    2    2   13   10   -0.002709   -0.000241
   -4    2    2   14   10    0.003764    0.000760
   -4    2    2    1   11   -0.000746   -0.001437
   -4    2    2    2   11   -0.004738   -0.002073
   -4    2    2    3   11    0.001877    0.000594
   -4    2    2    4   11    0.000121   -0.002461
   -4    2    2    5   11    0.000510    0.000334
   -4    2    2    6   11   -0.000935   -0.002089
   -4    2    2    7   11    0.000645    0.000404
   -4    2    2    8   11   -0.003260   -0.000554
   -4    2    2    9   11   -0.001920   -0.001213
   -4    2    2   10   11   -0.000548   -0.002436
   -4    2    2   11   11    0.007136   -0.000198
   -4    2    2   12   11    0.004211    0.000693
   -4    2    2   13   11    0.003521   -0.000187
   -4    2    2   14   11   -0.003463    0.000413
   -4    2    2    1   12    0.001699    0.000710
   -4    2    2    2   12   -0.000075    0.000376
   -4    2    2    3   12    0.000020    0.000040
   -4    2    2    4   12   -0.000350   -0.001061
   -4    2    2    5   12    0.000536   -0.000688
   -4    2    2    6   12   -0.007410   -0.001021
   -4    2    2    7   12    0.008250    0.004099
   -4    2    2    8   12   -0.004535   -0.000020
   -4    2    2    9   12    0.002532    0.000115
   -4    2    2   10   12    0.002021    0.000418
   -4    2    2   11   12    0.001229   -0.000986
   -4    2    2   12   12    0.001409   -0.000098
   -4    2    2   13   12   -0.001117   -0.004391
   -4    2    2   14   12    0.001669    0.001332
   -4    2    2    1   13    0.002471    0.000876
   -4    2    2    2   13   -0.000141   -0.000986
   -4    2    2    3   13   -0.000056    0.000226
   -4    2    2    4   13    0.000057    0.000132
   -4    2    2    5   13    0.007966    0.000627
   -4    2    2    6   13    0.000750   -0.000253
   -4    2    2    7   13   -0.001755    0.001356
   -4    2    2    8   13   -0.004295    0.001777
   -4    2    2    9   13    0.000946   -0.000804
   -4    2    2   10   13    0.002168    0.000274
   -4    2    2   11   13    0.001168   -0.000002
   -4    2    2   12   13    0.001683    0.004409
   -4    2    2   13   13    0.000254   -0.000124
   -4    2    2   14   13    0.000264    0.005815
   -4    2    2    1   14    0.001118   -0.000796
   -4    2    2    2   14    0.000381   -0.000346
   -4    2    2    3   14    0.000037   -0.001334
   -4    2    2    4   14   -0.000094    0.000350
   -4    2    2    5   14   -0.007570   -0.004231
   -4    2    2    6   14    0.002416   -0.001627
   -4    2    2    7   14    0.000254   -0.001124
   -4    2    2    8   14   -0.004756   -0.000161
   -4    2    2    9   14    0.001425    0.000250
   -4    2    2   10   14    0.001660   -0.000402
   -4    2    2   11   14    0.002348   -0.000155
   -4    2    2   12   14   -0.001500   -0.001126
   -4    2    2   13   14    0.000085   -0.005677
   -4    2    2   14   14    0.001548    0.000323
   -3   -3    3    1    1   -0.006663   -0.000000
   -3   -3    3    2    1    0.000022   -0.000066
   -3   -3    3    3    1   -0.000097   -0.000142
   -3   -3    3    4    1    0.000115   -0.000145
   -3   -3    3    5    1   -0.000547   -0.000235
   -3   -3    3    6    1    0.000339   -0.000302
   -3   -3    3    7    1   -0.001454   -0.000140
   -3   -3    3    8    1   -0.002408    0.001829
   -3   -3    3    9    1    0.000248    0.000205
   -3   -3    3   10    1    0.000147    0.000017
   -3   -3    3   11    1    0.000606    0.000208
   -3   -3    3   12    1    0.000685    0.001106
   -3   -3    3   13    1    0.000752    0.001602
   -3   -3    3   14    1    0.000432    0.000614
   -3   -3    3    1    2    0.000022    0.000066
   -3   -3    3    2    2    0.002917   -0.000000
   -3   -3    3    3    2   -0.000079    0.000565
   -3   -3    3    4    2    0.000108    0.001721
   -3   -3    3    5    2    0.000067   -0.000134
   -3   -3    3    6    2    0.001757    0.000163
   -3   -3    3    7    2    0.000878   -0.000402
   -3   -3    3    8    2   -0.000052   -0.000407
   -3   -3    3    9    2   -0.001004   -0.004246
   -3   -3    3   10    2   -0.000374    0.001308
   -3   -3    3   11    2   -0.001503   -0.001595
   -3   -3    3   12    2    0.000091   -0.000081
   -3   -3    3   13    2    0.000134   -0.000678
   -3   -3    3   14    2    0.000235   -0.000740
   -3   -3    3    1    3   -0.000097    0.000142
   -3   -3    3    2    3   -0.000079   -0.000565
   -3   -3    3    3    3    0.003641   -0.000000
   -3   -3    3    4    3    0.000013   -0.000005
   -3   -3    3    5    3    0.001708   -0.000078
   -3   -3    3    6    3   -0.000402    0.000108
   -3   -3    3    7    3    0.001495    0.000259
   -3   -3    3    8    3    0.000062   -0.000409
   -3   -3    3    9    3    0.000297   -0.001431
   -3   -3    3   10    3   -0.000990   -0.004253
   -3   -3    3   11    3   -0.000288    0.003618
   -3   -3    3   12    3   -0.000296   -0.000781
   -3   -3    3   13    3    0.000238   -0.000154
   -3   -3    3   14    3   -0.000033   -0.001041
   -3   -3    3    1    4    0.000115    0.000145
   -3   -3    3    2    4    0.000108   -0.001721
   -3   -3    3    3    4    0.000013    0.000005
   -3   -3    3    4    4    0.004233   -0.000000
   -3   -3    3    5    4    0.002150    0.000679
   -3   -3    3    6    4    0.001723   -0.000127
   -3   -3    3    7    4   -0.000022    0.000152
   -3   -3    3    8    4   -0.000185   -0.000014
   -3   -3    3    9    4    0.001302    0.001733
   -3   -3    3   10    4    0.000208   -0.003538
   -3   -3    3   11    4   -0.000990   -0.004266
   -3   -3    3   12    4    0.000277   -0.000273
   -3   -3    3   13    4    0.000148   -0.000098
   -3   -3    3   14    4   -0.000052   -0.000111
   -3   -3    3    1    5   -0.000547    0.000235
   -3   -3    3    2    5    0.000067    0.000134
   -3   -3    3    3    5    0.001708    0.000078
   -3   -3    3    4    5    0.002150   -0.000679
   -3   -3    3    5    5    0.001514   -0.000000
   -3   -3    3    6    5    0.000102    0.001433
   -3   -3    3    7    5   -0.000107    0.002316
   -3   -3    3    8    5    0.000441    0.000424
   -3   -3    3    9    5    0.000100   -0.000016
   -3   -3    3   10    5   -0.000861   -0.001468
   -3   -3    3   11    5    0.000533   -0.000697
   -3   -3    3   12    5    0.001381    0.000464
   -3   -3    3   13    5   -0.001036    0.003668
   -3   -3    3   14    5   -0.002077   -0.004017
   -3   -3    3    1    6    0.000339    0.000302
   -3   -3    3    2    6    0.001757   -0.000163
   -3   -3    3    3    6   -0.000402   -0.000108
   -3   -3    3    4    6    0.001723    0.000127
   -3   -3    3    5    6    0.000102   -0.001433
   -3   -3    3    6    6    0.000803   -0.000000
   -3   -3    3    7    6    0.000003    0.001203
   -3   -3    3    8    6    0.000202    0.000329
   -3   -3    3    9    6   -0.000585   -0.000473
   -3   -3    3   10    6    0.000182   -0.000052
   -3   -3    3   11    6   -0.000250   -0.001736
   -3   -3    3   12    6    0.001111   -0.003600
   -3   -3    3   13    6    0.001510    0.000373
   -3   -3    3   14    6   -0.000931    0.009212
   -3   -3    3    1    7   -0.001454    0.000140
   -3   -3    3    2    7    0.000878    0.000402
   -3   -3    3    3    7    0.001495   -0.000259
   -3   -3    3    4    7   -0.000022   -0.000152
   -3   -3    3    5    7   -0.000107   -0.002316
   -3   -3    3    6    7    0.000003   -0.001203
   -3   -3    3    7    7    0.000234   -0.000000
   -3   -3    3    8    7    0.000633    0.000279
   -3   -3    3    9    7   -0.001233   -0.002405
   -3   -3    3   10    7   -0.000632   -0.000839
   -3   -3    3   11    7    0.000042    0.000129
   -3   -3    3   12    7    0.002249    0.003817
   -3   -3    3   13    7    0.001034   -0.009300
   -3   -3    3   14    7    0.001311    0.000595
   -3   -3    3    1    8   -0.002408   -0.001829
   -3   -3    3    2    8   -0.000052    0.000407
   -3   -3    3    3    8    0.000062    0.000409
   -3   -3    3    4    8   -0.000185    0.000014
   -3   -3    3    5    8    0.000441   -0.000424
   -3   -3    3    6    8    0.000202   -0.000329
   -3   -3    3    7    8    0.000633   -0.000279
   -3   -3    3    8    8   -0.006804   -0.000000
   -3   -3    3    9    8   -0.000015    0.000051
   -3   -3    3   10    8    0.000111    0.000122
   -3   -3    3   11    8   -0.000128    0.000163
   -3   -3    3   12    8   -0.000927    0.000257
   -3   -3    3   13    8   -0.001827    0.000326
   -3   -3    3   14    8   -0.000009    0.000153
   -3   -3    3    1    9    0.000248   -0.000205
   -3   -3    3    2    9   -0.001004    0.004246
   -3   -3    3    3    9    0.000297    0.001431
   -3   -3    3    4    9    0.001302   -0.001733
   -3   -3    3    5    9    0.000100    0.000016
   -3   -3    3    6    9   -0.000585    0.000473
   -3   -3    3    7    9   -0.001233    0.002405
   -3   -3    3    8    9   -0.000015   -0.000051
   -3   -3    3    9    9    0.005077   -0.000000
   -3   -3    3   10    9    0.000091   -0.000516
   -3   -3    3   11    9   -0.000124   -0.001760
   -3   -3    3   12    9   -0.000271    0.000086
   -3   -3    3   13    9    0.001406   -0.000237
   -3   -3    3   14    9    0.002398    0.000483
   -3   -3    3    1   10    0.000147   -0.000017
   -3   -3    3    2   10   -0.000374   -0.001308
   -3   -3    3    3   10   -0.000990    0.004253
   -3   -3    3    4   10    0.000208    0.003538
   -3   -3    3    5   10   -0.000861    0.001468
   -3   -3    3    6   10    0.000182    0.000052
   -3   -3    3    7   10   -0.000632    0.000839
   -3   -3    3    8   10    0.000111   -0.000122
   -3   -3    3    9   10    0.000091    0.000516
   -3   -3    3   10   10    0.004402   -0.000000
   -3   -3    3   11   10   -0.000013    0.000089
   -3   -3    3   12   10    0.001559    0.000124
   -3   -3    3   13   10    0.000115   -0.000163
   -3   -3    3   14   10    0.001717   -0.000260
   -3   -3    3    1   11    0.000606   -0.000208
   -3   -3    3    2   11   -0.001503    0.001595
   -3   -3    3    3   11   -0.000288   -0.003618
   -3   -3    3    4   11   -0.000990    0.004266
   -3   -3    3    5   11    0.000533    0.000697
   -3   -3    3    6   11   -0.000250    0.001736
   -3   -3    3    7   11    0.000042   -0.000129
   -3   -3    3    8   11   -0.000128   -0.000163
   -3   -3    3    9   11   -0.000124    0.001760
   -3   -3    3   10   11   -0.000013   -0.000089
   -3   -3    3   11   11    0.003634   -0.000000
   -3   -3    3   12   11    0.000992   -0.000726
   -3   -3    3   13   11    0.001425    0.000119
   -3   -3    3   14   11   -0.000109   -0.000165
   -3   -3    3    1   12    0.000685   -0.001106
   -3   -3    3    2   12    0.000091    0.000081
   -3   -3    3    3   12   -0.000296    0.000781
   -3   -3    3    4   12    0.000277    0.000273
   -3   -3    3    5   12    0.001381   -0.000464
   -3   -3    3    6   12    0.001111    0.003600
   -3   -3    3    7   12    0.002249   -0.003817
   -3   -3    3    8   12   -0.000927   -0.000257
   -3   -3    3    9   12   -0.000271   -0.000086
   -3   -3    3   10   12    0.001559   -0.000124
   -3   -3    3   11   12    0.000992    0.000726
   -3   -3    3   12   12   -0.000580   -0.000000
   -3   -3    3   13   12   -0.000108   -0.001433
   -3   -3    3   14   12    0.000106   -0.002307
   -3   -3    3    1   13    0.000752   -0.001602
   -3   -3    3    2   13    0.000134    0.000678
   -3   -3    3    3   13    0.000238    0.000154
   -3   -3    3    4   13    0.000148    0.000098
   -3   -3    3    5   13   -0.001036   -0.003668
   -3   -3    3    6   13    0.001510   -0.000373
   -3   -3    3    7   13    0.001034    0.009300
   -3   -3    3    8   13   -0.001827   -0.000326
   -3   -3    3    9   13    0.001406    0.000237
   -3   -3    3   10   13    0.000115    0.000163
   -3   -3    3   11   13    0.001425   -0.000119
   -3   -3    3   12   13   -0.000108    0.001433
   -3   -3    3   13   13    0.000016   -0.000000
   -3   -3    3   14   13    0.000012   -0.001198
   -3   -3    3    1   14    0.000432   -0.000614
   -3   -3    3    2   14    0.000235    0.000740
   -3   -3    3    3   14   -0.000033    0.001041
   -3   -3    3    4   14   -0.000052    0.000111
   -3   -3    3    5   14   -0.002077    0.004017
   -3   -3    3    6   14   -0.000931   -0.009212
   -3   -3    3    7   14    0.001311   -0.000595
   -3   -3    3    8   14   -0.000009   -0.000153
   -3   -3    3    9   14    0.002398   -0.000483
   -3   -3    3   10   14    0.001717    0.000260
   -3   -3    3   11   14   -0.000109    0.000165
   -3   -3    3   12   14    0.000106    0.002307
   -3   -3    3   13   14    0.000012    0.001198
   -3   -3    3   14   14    0.000722   -0.000000
   -3   -2    2    1    1   -0.000877   -0.000029
   -3   -2    2    2    1   -0.001207    0.000118
   -3   -2    2    3    1    0.000179    0.000115
   -3   -2    2    4    1    0.001440    0.000460
   -3   -2    2    5    1   -0.000088    0.000003
   -3   -2    2    6    1    0.000339    0.000022
   -3   -2    2    7    1   -0.001489    0.000640
   -3   -2    2    8    1   -0.000025   -0.000772
   -3   -2    2    9    1   -0.000067   -0.000241
   -3   -2    2   10    1    0.000241    0.001002
   -3   -2    2   11    1    0.000288   -0.000133
   -3   -2    2   12    1   -0.000411    0.001083
   -3   -2    2   13    1   -0.000228   -0.000917
   -3   -2    2   14    1    0.000437   -0.000564
   -3   -2    2    1    2    0.001405   -0.000063
   -3   -2    2    2    2    0.000153   -0.000226
   -3   -2    2    3    2   -0.001668   -0.001373
   -3   -2    2    4    2    0.002975    0.002377
   -3   -2    2    5    2   -0.000449    0.000641
   -3   -2    2    6    2   -0.000388    0.000083
   -3   -2    2    7    2   -0.000678   -0.000262
   -3   -2    2    8    2    0.000380    0.000716
   -3   -2    2    9    2   -0.000019   -0.000117
   -3   -2    2   10    2   -0.002188    0.002296
   -3   -2    2   11    2   -0.000880   -0.000183
   -3   -2    2   12    2    0.000093    0.000025
   -3   -2    2   13    2    0.000905    0.000175
   -3   -2    2   14    2   -0.000082   -0.000270
   -3   -2    2    1    3    0.000045    0.000403
   -3   -2    2    2    3    0.001467    0.001518
   -3   -2    2    3    3   -0.003275    0.000944
   -3   -2    2    4    3   -0.001443    0.000438
   -3   -2    2    5    3   -0.000236   -0.000473
   -3   -2    2    6    3   -0.000039   -0.000066
   -3   -2    2    7    3   -0.000265   -0.000140
   -3   -2    2    8    3   -0.000558    0.000313
   -3   -2    2    9    3    0.002264   -0.002240
   -3   -2    2   10    3    0.000616    0.004761
   -3   -2    2   11    3   -0.002131   -0.000258
   -3   -2    2   12    3   -0.001582    0.001704
   -3   -2    2   13    3    0.000008   -0.000494
   -3   -2    2   14    3    0.000913    0.001330
   -3   -2    2    1    4   -0.001146    0.000136
   -3   -2    2    2    4    0.000834   -0.002081
   -3   -2    2    3    4    0.001923   -0.000509
   -3   -2    2    4    4    0.001187   -0.000854
   -3   -2    2    5    4    0.002805    0.000301
   -3   -2    2    6    4   -0.001926    0.000111
   -3   -2    2    7    4    0.000912   -0.000362
   -3   -2    2    8    4   -0.000588   -0.000694
   -3   -2    2    9    4    0.000100    0.000129
   -3   -2    2   10    4    0.002056    0.000356
   -3   -2    2   11    4    0.000306   -0.000172
   -3   -2    2   12    4    0.000213   -0.000456
   -3   -2    2   13    4   -0.000776   -0.000542
   -3   -2    2   14    4   -0.000203    0.000782
   -3   -2    2    1    5   -0.000102   -0.000800
   -3   -2    2    2    5    0.000555    0.000359
   -3   -2    2    3    5   -0.000538    0.000314
   -3   -2    2    4    5    0.001346   -0.000889
   -3   -2    2    5    5    0.001997   -0.000112
   -3   -2    2    6    5    0.000050   -0.002854
   -3   -2    2    7    5    0.002398    0.003017
   -3   -2    2    8    5   -0.000188   -0.001111
   -3   -2    2    9    5    0.000159   -0.000330
   -3   -2    2   10    5    0.000109    0.001250
   -3   -2    2   11    5   -0.000918   -0.001248
   -3   -2    2   12    5   -0.000367   -0.000342
   -3   -2    2   13    5   -0.002533    0.004916
   -3   -2    2   14    5   -0.001015    0.000839
   -3   -2    2    1    6    0.000110   -0.000216
   -3   -2    2    2    6   -0.001355   -0.000029
   -3   -2    2    3    6    0.000190   -0.000340
   -3   -2    2    4    6   -0.000761   -0.000833
   -3   -2    2    5    6    0.000194    0.002224
   -3   -2    2    6    6   -0.002624   -0.000830
   -3   -2    2    7    6   -0.000472   -0.000038
   -3   -2    2    8    6    0.000712   -0.000007
   -3   -2    2    9    6   -0.001202    0.000430
   -3   -2    2   10    6   -0.000074    0.000160
   -3   -2    2   11    6   -0.000752    0.000263
   -3   -2    2   12    6    0.002480   -0.005369
   -3   -2    2   13    6   -0.000102    0.000509
   -3   -2    2   14    6   -0.005091   -0.002011
   -3   -2    2    1    7   -0.001502   -0.000225
   -3   -2    2    2    7    0.001039    0.000863
   -3   -2    2    3    7   -0.000366    0.001317
   -3   -2    2    4    7   -0.000444    0.000066
   -3   -2    2    5    7   -0.002021   -0.003843
   -3   -2    2    6    7   -0.000408    0.000230
   -3   -2    2    7    7    0.000940    0.000840
   -3   -2    2    8    7   -0.000385    0.001006
   -3   -2    2    9    7    0.001313    0.000371
   -3   -2    2   10    7   -0.000112    0.000059
   -3   -2    2   11    7   -0.000370    0.000462
   -3   -2    2   12    7    0.001452   -0.000571
   -3   -2    2   13    7    0.005332    0.002162
   -3   -2    2   14    7    0.000006   -0.000194
   -3   -2    2    1    8    0.000021    0.000945
   -3   -2    2    2    8   -0.000295   -0.000716
   -3   -2    2    3    8    0.000733   -0.000234
   -3   -2    2    4    8    0.000176   -0.000267
   -3   -2    2    5    8   -0.000884   -0.000321
   -3   -2    2    6    8    0.000434   -0.000500
   -3   -2    2    7    8   -0.000021   -0.000122
   -3   -2    2    8    8   -0.000805    0.000107
   -3   -2    2    9    8   -0.001394   -0.000119
   -3   -2    2   10    8   -0.000125   -0.000127
   -3   -2    2   11    8    0.001213   -0.000438
   -3   -2    2   12    8   -0.001509   -0.000001
   -3   -2    2   13    8    0.001240   -0.000011
   -3   -2    2   14    8   -0.001425   -0.000627
   -3   -2    2    1    9    0.000639    0.001212
   -3   -2    2    2    9    0.000033   -0.000261
   -3   -2    2    3    9   -0.003664   -0.001765
   -3   -2    2    4    9    0.000005   -0.000227
   -3   -2    2    5    9   -0.000216    0.000208
   -3   -2    2    6    9    0.000127   -0.000955
   -3   -2    2    7    9   -0.000799    0.001740
   -3   -2    2    8    9    0.001217    0.000062
   -3   -2    2    9    9    0.001720   -0.000017
   -3   -2    2   10    9   -0.001594    0.001364
   -3   -2    2   11    9    0.000971   -0.002303
   -3   -2    2   12    9    0.000081   -0.000602
   -3   -2    2   13    9   -0.000334   -0.000146
   -3   -2    2   14    9    0.001297    0.000176
   -3   -2    2    1   10   -0.000786    0.000676
   -3   -2    2    2   10    0.003716    0.001903
   -3   -2    2    3   10    0.000504   -0.004982
   -3   -2    2    4   10   -0.001509   -0.000848
   -3   -2    2    5   10   -0.001722   -0.001448
   -3   -2    2    6   10   -0.000079   -0.000309
   -3   -2    2    7   10    0.000679   -0.000844
   -3   -2    2    8   10    0.000025   -0.000439
   -3   -2    2    9   10    0.001755   -0.001451
   -3   -2    2   10   10   -0.003374   -0.000984
   -3   -2    2   11   10   -0.001843   -0.000463
   -3   -2    2   12   10   -0.000525    0.000432
   -3   -2    2   13   10   -0.000291    0.000099
   -3   -2    2   14   10   -0.000333    0.000129
   -3   -2    2    1   11   -0.000174   -0.000507
   -3   -2    2    2   11   -0.000852    0.000292
   -3   -2    2    3   11    0.001351    0.000898
   -3   -2    2    4   11    0.000203    0.000057
   -3   -2    2    5   11    0.001637   -0.000831
   -3   -2    2    6   11   -0.000584   -0.000668
   -3   -2    2    7   11    0.000233    0.000238
   -3   -2    2    8   11   -0.001450   -0.000155
   -3   -2    2    9   11    0.003126    0.002136
   -3   -2    2   10   11    0.001374    0.000494
   -3   -2    2   11   11    0.000566    0.000710
   -3   -2    2   12   11    0.000789   -0.000375
   -3   -2    2   13   11   -0.001703   -0.000142
   -3   -2    2   14   11    0.000401    0.000392
   -3   -2    2    1   12   -0.000072   -0.000434
   -3   -2    2    2   12    0.000259   -0.000594
   -3   -2    2    3   12    0.001246    0.001073
   -3   -2    2    4   12   -0.000977    0.000736
   -3   -2    2    5   12    0.000008   -0.000068
   -3   -2    2    6   12   -0.008080   -0.001940
   -3   -2    2    7   12    0.001349    0.000925
   -3   -2    2    8   12   -0.002830    0.000797
   -3   -2    2    9   12    0.000861   -0.000289
   -3   -2    2   10   12   -0.000100   -0.000287
   -3   -2    2   11   12   -0.000797    0.000829
   -3   -2    2   12   12    0.000366    0.000122
   -3   -2    2   13   12    0.000076    0.002843
   -3   -2    2   14   12   -0.002612   -0.003001
   -3   -2    2    1   13   -0.000278    0.000531
   -3   -2    2    2   13   -0.001640   -0.000905
   -3   -2    2    3   13   -0.000427   -0.000075
   -3   -2    2    4   13   -0.000710   -0.001857
   -3   -2    2    5   13    0.008130    0.001342
   -3   -2    2    6   13   -0.000144    0.000055
   -3   -2    2    7   13   -0.001445   -0.001633
   -3   -2    2    8   13    0.001492    0.000277
   -3   -2    2    9   13   -0.002255   -0.000072
   -3   -2    2   10   13   -0.000610    0.000267
   -3   -2    2   11   13    0.000133    0.000812
   -3   -2    2   12   13   -0.000279   -0.002238
   -3   -2    2   13   13   -0.002403    0.000775
   -3   -2    2   14   13    0.000565    0.000025
   -3   -2    2    1   14   -0.000392    0.000816
   -3   -2    2    2   14    0.000056    0.000421
   -3   -2    2    3   14   -0.000040   -0.000495
   -3   -2    2    4   14   -0.000083    0.000611
   -3   -2    2    5   14   -0.000826   -0.000142
   -3   -2    2    6   14    0.001626    0.001893
   -3   -2    2    7   14   -0.000415   -0.000045
   -3   -2    2    8   14   -0.000061    0.000226
   -3   -2    2    9   14    0.002702   -0.000967
   -3   -2    2   10   14   -0.000338   -0.001357
   -3   -2    2   11   14   -0.000107   -0.000070
   -3   -2    2   12   14    0.001788    0.003815
   -3   -2    2   13   14    0.000317   -0.000215
   -3   -2    2   14   14    0.001636   -0.000887
   -3   -2    3    1    1   -0.000878    0.000007
   -3   -2    3    2    1   -0.001394   -0.000247
[...]
    4   -1   -2    8   14   -0.000060    0.000664
    4   -1   -2    9   14   -0.003230    0.000897
    4   -1   -2   10   14   -0.003624   -0.000506
    4   -1   -2   11   14   -0.002976   -0.000022
    4   -1   -2   12   14    0.002339   -0.002757
    4   -1   -2   13   14    0.000149    0.007110
    4   -1   -2   14   14   -0.002453    0.000555
    4   -1   -1    1    1   -0.001195   -0.000016
    4   -1   -1    2    1    0.000158    0.000046
    4   -1   -1    3    1   -0.006717   -0.000136
    4   -1   -1    4    1   -0.000068   -0.000198
    4   -1   -1    5    1   -0.000837   -0.000207
    4   -1   -1    6    1    0.001011   -0.000246
    4   -1   -1    7    1    0.000251   -0.000078
    4   -1   -1    8    1   -0.000062   -0.000298
    4   -1   -1    9    1   -0.000151   -0.000074
    4   -1   -1   10    1    0.000654   -0.000484
    4   -1   -1   11    1   -0.000216    0.000635
    4   -1   -1   12    1    0.000538   -0.001078
    4   -1   -1   13    1   -0.000103    0.000446
    4   -1   -1   14    1   -0.000320   -0.000520
    4   -1   -1    1    2   -0.000287    0.000416
    4   -1   -1    2    2    0.004255    0.001275
    4   -1   -1    3    2    0.001051   -0.000293
    4   -1   -1    4    2   -0.000609   -0.000485
    4   -1   -1    5    2   -0.001227   -0.000178
    4   -1   -1    6    2   -0.003839    0.000020
    4   -1   -1    7    2    0.003934    0.000569
    4   -1   -1    8    2    0.000048    0.000201
    4   -1   -1    9    2    0.000642   -0.000207
    4   -1   -1   10    2   -0.000922   -0.001048
    4   -1   -1   11    2   -0.000366   -0.000350
    4   -1   -1   12    2    0.000189    0.000042
    4   -1   -1   13    2    0.000308   -0.000864
    4   -1   -1   14    2   -0.001579    0.001985
    4   -1   -1    1    3   -0.002020    0.000161
    4   -1   -1    2    3   -0.001095   -0.000458
    4   -1   -1    3    3   -0.010124   -0.000478
    4   -1   -1    4    3    0.000002    0.003025
    4   -1   -1    5    3   -0.004124   -0.000807
    4   -1   -1    6    3   -0.001116    0.000106
    4   -1   -1    7    3   -0.003791   -0.001568
    4   -1   -1    8    3   -0.000282    0.000222
    4   -1   -1    9    3    0.000677    0.001002
    4   -1   -1   10    3    0.000427   -0.003541
    4   -1   -1   11    3    0.000409   -0.002086
    4   -1   -1   12    3    0.000678   -0.002755
    4   -1   -1   13    3    0.000079    0.000387
    4   -1   -1   14    3    0.000279   -0.000179
    4   -1   -1    1    4   -0.000109    0.000868
    4   -1   -1    2    4   -0.000526    0.000541
    4   -1   -1    3    4   -0.000037   -0.002947
    4   -1   -1    4    4    0.003575   -0.000929
    4   -1   -1    5    4    0.004362   -0.000562
    4   -1   -1    6    4   -0.004544    0.001374
    4   -1   -1    7    4   -0.001547    0.000057
    4   -1   -1    8    4    0.001134   -0.000654
    4   -1   -1    9    4   -0.000218    0.000042
    4   -1   -1   10    4   -0.000557    0.002053
    4   -1   -1   11    4   -0.000293    0.001082
    4   -1   -1   12    4   -0.000472    0.001530
    4   -1   -1   13    4    0.001162   -0.003154
    4   -1   -1   14    4   -0.000103    0.000968
    4   -1   -1    1    5    0.001324   -0.000515
    4   -1   -1    2    5    0.000737   -0.000557
    4   -1   -1    3    5   -0.005389   -0.000368
    4   -1   -1    4    5    0.006098   -0.000090
    4   -1   -1    5    5   -0.002397   -0.000842
    4   -1   -1    6    5    0.002359    0.001703
    4   -1   -1    7    5    0.001165   -0.000551
    4   -1   -1    8    5   -0.002154   -0.001440
    4   -1   -1    9    5    0.001282   -0.000426
    4   -1   -1   10    5   -0.000087   -0.000438
    4   -1   -1   11    5   -0.000842    0.003725
    4   -1   -1   12    5   -0.001624    0.001556
    4   -1   -1   13    5    0.001763   -0.001988
    4   -1   -1   14    5   -0.000491    0.001273
    4   -1   -1    1    6    0.004256    0.000177
    4   -1   -1    2    6   -0.006074    0.000582
    4   -1   -1    3    6    0.003074    0.000089
    4   -1   -1    4    6   -0.006049    0.000642
    4   -1   -1    5    6   -0.002235   -0.000594
    4   -1   -1    6    6   -0.003945    0.000215
    4   -1   -1    7    6    0.000253    0.007104
    4   -1   -1    8    6   -0.000951   -0.000669
    4   -1   -1    9    6    0.000548   -0.002072
    4   -1   -1   10    6   -0.001180    0.001136
    4   -1   -1   11    6    0.001646   -0.002428
    4   -1   -1   12    6   -0.000915    0.001111
    4   -1   -1   13    6    0.000498   -0.001525
    4   -1   -1   14    6    0.001427   -0.005116
    4   -1   -1    1    7    0.001373   -0.001895
    4   -1   -1    2    7    0.006953    0.000755
    4   -1   -1    3    7   -0.004944   -0.000711
    4   -1   -1    4    7    0.000482    0.000450
    4   -1   -1    5    7    0.001466    0.000358
    4   -1   -1    6    7    0.000286   -0.006692
    4   -1   -1    7    7   -0.001959    0.000516
    4   -1   -1    8    7   -0.002601    0.000795
    4   -1   -1    9    7    0.002011    0.001291
    4   -1   -1   10    7   -0.001079   -0.000749
    4   -1   -1   11    7   -0.000027    0.000296
    4   -1   -1   12    7    0.001257   -0.000581
    4   -1   -1   13    7   -0.001351    0.005929
    4   -1   -1   14    7   -0.000001   -0.000740
    4   -1   -1    1    8   -0.000015    0.000437
    4   -1   -1    2    8    0.000113    0.000290
    4   -1   -1    3    8    0.000159   -0.000120
    4   -1   -1    4    8   -0.000138    0.000004
    4   -1   -1    5    8    0.000926    0.001374
    4   -1   -1    6    8    0.000823   -0.000062
    4   -1   -1    7    8    0.000228    0.000224
    4   -1   -1    8    8   -0.001101    0.000038
    4   -1   -1    9    8   -0.000133   -0.000006
    4   -1   -1   10    8   -0.006881    0.000154
    4   -1   -1   11    8    0.000093    0.000192
    4   -1   -1   12    8    0.000626    0.000228
    4   -1   -1   13    8   -0.000808    0.000253
    4   -1   -1   14    8   -0.000433    0.000096
    4   -1   -1    1    9   -0.000715    0.000033
    4   -1   -1    2    9    0.000602   -0.000237
    4   -1   -1    3    9    0.000431   -0.001930
    4   -1   -1    4    9   -0.000134   -0.000325
    4   -1   -1    5    9   -0.000042   -0.000647
    4   -1   -1    6    9    0.000285    0.001194
    4   -1   -1    7    9   -0.000465   -0.001298
    4   -1   -1    8    9    0.000279   -0.000342
    4   -1   -1    9    9    0.002509   -0.001257
    4   -1   -1   10    9   -0.001067    0.000269
    4   -1   -1   11    9   -0.000282    0.000498
    4   -1   -1   12    9   -0.001506    0.000232
    4   -1   -1   13    9   -0.003518    0.000002
    4   -1   -1   14    9    0.003377   -0.000544
    4   -1   -1    1   10   -0.000611   -0.000145
    4   -1   -1    2   10   -0.000387    0.001811
    4   -1   -1    3   10    0.000415    0.003415
    4   -1   -1    4   10   -0.001190   -0.002907
    4   -1   -1    5   10    0.000905    0.000141
    4   -1   -1    6   10    0.000161   -0.000089
    4   -1   -1    7   10    0.001211    0.002519
    4   -1   -1    8   10   -0.002503   -0.000187
    4   -1   -1    9   10    0.001109    0.000542
    4   -1   -1   10   10   -0.011175    0.000318
    4   -1   -1   11   10   -0.000034   -0.003107
    4   -1   -1   12   10   -0.003220    0.000718
    4   -1   -1   13   10   -0.001625   -0.000118
    4   -1   -1   14   10   -0.003567    0.001524
    4   -1   -1    1   11   -0.000262   -0.000261
    4   -1   -1    2   11   -0.000225    0.000006
    4   -1   -1    3   11    0.001521    0.002696
    4   -1   -1    4   11   -0.000197   -0.000719
    4   -1   -1    5   11   -0.000116   -0.000647
    4   -1   -1    6   11    0.000531    0.000009
    4   -1   -1    7   11    0.000118   -0.000042
    4   -1   -1    8   11    0.000058   -0.000926
    4   -1   -1    9   11   -0.000419   -0.000470
    4   -1   -1   10   11    0.000062    0.003002
    4   -1   -1   11   11    0.003516    0.000938
    4   -1   -1   12   11    0.003062    0.000514
    4   -1   -1   13   11   -0.002863   -0.001362
    4   -1   -1   14   11   -0.001258   -0.000056
    4   -1   -1    1   12    0.000173   -0.000165
    4   -1   -1    2   12    0.000606    0.000047
    4   -1   -1    3   12    0.000316    0.001196
    4   -1   -1    4   12   -0.000744   -0.003086
    4   -1   -1    5   12   -0.001051   -0.000589
    4   -1   -1    6   12    0.001384   -0.001501
    4   -1   -1    7   12    0.001173    0.000462
    4   -1   -1    8   12    0.000835    0.000433
    4   -1   -1    9   12    0.000332    0.000646
    4   -1   -1   10   12   -0.004199    0.000233
    4   -1   -1   11   12    0.007093    0.000053
    4   -1   -1   12   12   -0.001060    0.000766
    4   -1   -1   13   12   -0.002369   -0.001744
    4   -1   -1   14   12    0.000952    0.000546
    4   -1   -1    1   13   -0.000339    0.001050
    4   -1   -1    2   13    0.000282    0.000954
    4   -1   -1    3   13   -0.000538    0.000065
    4   -1   -1    4   13    0.000232    0.000977
    4   -1   -1    5   13   -0.001941    0.001297
    4   -1   -1    6   13   -0.000198    0.000920
    4   -1   -1    7   13   -0.001274   -0.005012
    4   -1   -1    8   13    0.007068   -0.000130
    4   -1   -1    9   13   -0.006356   -0.000524
    4   -1   -1   10   13    0.003235   -0.000067
    4   -1   -1   11   13   -0.006242   -0.000605
    4   -1   -1   12   13    0.002231    0.000591
    4   -1   -1   13   13   -0.002705   -0.000188
    4   -1   -1   14   13   -0.000274   -0.007035
    4   -1   -1    1   14    0.000859    0.000866
    4   -1   -1    2   14    0.000734   -0.001181
    4   -1   -1    3   14   -0.000751    0.000214
    4   -1   -1    4   14   -0.000136   -0.001028
    4   -1   -1    5   14   -0.000495   -0.001319
    4   -1   -1    6   14    0.000830    0.005373
    4   -1   -1    7   14    0.000170    0.000092
    4   -1   -1    8   14    0.000781    0.001894
    4   -1   -1    9   14    0.005857   -0.000718
    4   -1   -1   10   14   -0.004700    0.000767
    4   -1   -1   11   14    0.000837   -0.000513
    4   -1   -1   12   14    0.000714   -0.000328
    4   -1   -1   13   14   -0.000246    0.006709
    4   -1   -1   14   14   -0.001751   -0.000541
    4    0   -2    1    1   -0.003453   -0.000065
    4    0   -2    2    1    0.002503    0.000346
    4    0   -2    3    1    0.002331    0.001008
    4    0   -2    4    1   -0.002526   -0.000021
    4    0   -2    5    1   -0.002062   -0.000076
    4    0   -2    6    1   -0.001970   -0.000851
    4    0   -2    7    1    0.003203   -0.000960
    4    0   -2    8    1   -0.000273   -0.001253
    4    0   -2    9    1   -0.000294   -0.000202
    4    0   -2   10    1    0.001141   -0.000656
    4    0   -2   11    1    0.000603    0.000753
    4    0   -2   12    1    0.002436    0.000376
    4    0   -2   13    1   -0.001200    0.001045
    4    0   -2   14    1   -0.001655   -0.000382
    4    0   -2    1    2    0.000660   -0.000199
    4    0   -2    2    2    0.005802   -0.000351
    4    0   -2    3    2    0.000127   -0.000814
    4    0   -2    4    2   -0.000072   -0.001057
    4    0   -2    5    2    0.000549   -0.000242
    4    0   -2    6    2    0.000366    0.001016
    4    0   -2    7    2   -0.000427   -0.000058
    4    0   -2    8    2    0.000285   -0.001047
    4    0   -2    9    2   -0.000650    0.002921
    4    0   -2   10    2   -0.003930    0.003161
    4    0   -2   11    2   -0.003034   -0.000072
    4    0   -2   12    2   -0.000068   -0.000590
    4    0   -2   13    2    0.001888    0.000689
    4    0   -2   14    2    0.001219    0.000730
    4    0   -2    1    3    0.001373   -0.000157
    4    0   -2    2    3   -0.002410    0.000777
    4    0   -2    3    3    0.007229    0.000650
    4    0   -2    4    3    0.001216   -0.002688
    4    0   -2    5    3    0.004268    0.000073
    4    0   -2    6    3   -0.001874    0.000607
    4    0   -2    7    3    0.000124    0.000291
    4    0   -2    8    3   -0.000680   -0.001163
    4    0   -2    9    3    0.004094   -0.004587
    4    0   -2   10    3    0.000040    0.002438
    4    0   -2   11    3    0.001069   -0.002313
    4    0   -2   12    3   -0.000473    0.002556
    4    0   -2   13    3   -0.000058   -0.000843
    4    0   -2   14    3   -0.000288    0.001484
    4    0   -2    1    4   -0.001027   -0.000233
    4    0   -2    2    4    0.001920    0.000767
    4    0   -2    3    4    0.001120    0.002839
    4    0   -2    4    4    0.006063   -0.000287
    4    0   -2    5    4    0.003066    0.000283
    4    0   -2    6    4    0.003032   -0.000045
    4    0   -2    7    4   -0.002792   -0.000365
    4    0   -2    8    4   -0.001360    0.000765
    4    0   -2    9    4    0.003014    0.001168
    4    0   -2   10    4   -0.001233    0.003975
    4    0   -2   11    4   -0.000347    0.002647
    4    0   -2   12    4   -0.000980    0.000266
    4    0   -2   13    4    0.001722    0.001492
    4    0   -2   14    4   -0.000217    0.000635
    4    0   -2    1    5    0.000898    0.000114
    4    0   -2    2    5   -0.002528   -0.000083
    4    0   -2    3    5    0.004982   -0.000155
    4    0   -2    4    5    0.002684    0.000072
    4    0   -2    5    5    0.002797   -0.000106
    4    0   -2    6    5    0.002721   -0.002115
    4    0   -2    7    5   -0.003432   -0.001856
    4    0   -2    8    5   -0.001064    0.001003
    4    0   -2    9    5   -0.000249   -0.001319
    4    0   -2   10    5    0.001093   -0.000421
    4    0   -2   11    5    0.001345    0.001837
    4    0   -2   12    5    0.000636    0.000403
    4    0   -2   13    5   -0.008269    0.008568
    4    0   -2   14    5   -0.005022   -0.002621
    4    0   -2    1    6   -0.000078   -0.000360
    4    0   -2    2    6    0.005367    0.000062
    4    0   -2    3    6   -0.001795   -0.001224
    4    0   -2    4    6    0.002930    0.000539
    4    0   -2    5    6   -0.000328    0.002291
    4    0   -2    6    6    0.001394    0.000413
    4    0   -2    7    6   -0.001199   -0.006074
    4    0   -2    8    6    0.000242   -0.001241
    4    0   -2    9    6   -0.000950    0.001017
    4    0   -2   10    6   -0.000338    0.000483
    4    0   -2   11    6   -0.000375    0.002880
    4    0   -2   12    6    0.009196   -0.008473
    4    0   -2   13    6    0.000705    0.000726
    4    0   -2   14    6    0.000175   -0.003994
    4    0   -2    1    7   -0.002173    0.000055
    4    0   -2    2    7    0.002588    0.000117
    4    0   -2    3    7    0.001967   -0.000856
    4    0   -2    4    7    0.006682    0.001215
    4    0   -2    5    7    0.001316    0.000674
    4    0   -2    6    7   -0.001394    0.005650
    4    0   -2    7    7    0.002599   -0.000148
    4    0   -2    8    7   -0.000071   -0.002373
    4    0   -2    9    7   -0.002385    0.001098
    4    0   -2   10    7    0.000125   -0.002718
    4    0   -2   11    7    0.000644    0.001512
    4    0   -2   12    7    0.003959    0.001966
    4    0   -2   13    7   -0.001275    0.004161
    4    0   -2   14    7    0.000249    0.000924
    4    0   -2    1    8   -0.000329    0.001219
    4    0   -2    2    8   -0.000343   -0.000016
    4    0   -2    3    8    0.000451   -0.000305
    4    0   -2    4    8   -0.000160    0.000278
    4    0   -2    5    8    0.000451    0.001482
    4    0   -2    6    8    0.001433    0.000729
    4    0   -2    7    8    0.000073   -0.000306
    4    0   -2    8    8   -0.003379    0.000018
    4    0   -2    9    8    0.003053   -0.000339
    4    0   -2   10    8    0.003264   -0.000996
    4    0   -2   11    8   -0.003042    0.000013
    4    0   -2   12    8   -0.002027    0.000055
    4    0   -2   13    8   -0.002135    0.000856
    4    0   -2   14    8    0.004025    0.000960
    4    0   -2    1    9    0.000476   -0.000312
    4    0   -2    2    9   -0.000586   -0.002905
    4    0   -2    3    9   -0.003311   -0.000241
    4    0   -2    4    9    0.000453   -0.003381
    4    0   -2    5    9   -0.000127    0.001113
    4    0   -2    6    9    0.000824   -0.000417
    4    0   -2    7    9   -0.000618   -0.002001
    4    0   -2    8    9    0.002049    0.000193
    4    0   -2    9    9    0.008200    0.000396
    4    0   -2   10    9   -0.001770    0.000803
    4    0   -2   11    9    0.001721    0.000942
    4    0   -2   12    9   -0.001966    0.000253
    4    0   -2   13    9    0.003902   -0.001076
    4    0   -2   14    9    0.002025    0.000118
    4    0   -2    1   10    0.000370    0.000284
    4    0   -2    2   10    0.003391    0.000693
    4    0   -2    3   10   -0.000277   -0.002279
    4    0   -2    4   10    0.002044   -0.000129
    4    0   -2    5   10   -0.000388   -0.002028
    4    0   -2    6   10   -0.000745    0.000518
    4    0   -2    7   10   -0.000679   -0.002007
    4    0   -2    8   10    0.001342    0.000196
    4    0   -2    9   10    0.000698   -0.000818
    4    0   -2   10   10    0.006766   -0.000548
    4    0   -2   11   10    0.000491    0.002751
    4    0   -2   12   10   -0.000022    0.000008
    4    0   -2   13   10    0.000452   -0.000547
    4    0   -2   14   10    0.001534   -0.000253
    4    0   -2    1   11   -0.000426   -0.000374
    4    0   -2    2   11   -0.000502    0.002983
    4    0   -2    3   11   -0.002017   -0.000223
    4    0   -2    4   11   -0.000206   -0.002476
    4    0   -2    5   11    0.000831   -0.000749
    4    0   -2    6   11    0.000036    0.001062
    4    0   -2    7   11    0.000530   -0.001277
    4    0   -2    8   11   -0.001715    0.000182
    4    0   -2    9   11   -0.000309   -0.000858
    4    0   -2   10   11    0.000521   -0.002829
    4    0   -2   11   11    0.008006    0.000374
    4    0   -2   12   11    0.001000   -0.000201
    4    0   -2   13   11    0.001016    0.000015
    4    0   -2   14   11   -0.001926    0.000328
    4    0   -2    1   12   -0.000099    0.000371
    4    0   -2    2   12    0.000264   -0.000243
    4    0   -2    3   12    0.001631    0.000141
    4    0   -2    4   12   -0.000090    0.000083
    4    0   -2    5   12    0.000810   -0.000503
    4    0   -2    6   12   -0.006143    0.000488
    4    0   -2    7   12    0.000118   -0.006968
    4    0   -2    8   12   -0.001948   -0.000158
    4    0   -2    9   12   -0.001317    0.000015
    4    0   -2   10   12    0.004814    0.000296
    4    0   -2   11   12    0.002470   -0.000049
    4    0   -2   12   12    0.000607    0.000196
    4    0   -2   13   12   -0.001394    0.002076
    4    0   -2   14   12    0.002105    0.001878
    4    0   -2    1   13    0.001184   -0.000231
    4    0   -2    2   13   -0.001011   -0.000811
    4    0   -2    3   13    0.000134    0.001178
    4    0   -2    4   13   -0.000427   -0.001365
    4    0   -2    5   13    0.006941    0.000337
    4    0   -2    6   13    0.000108   -0.000613
    4    0   -2    7   13    0.002730   -0.000423
    4    0   -2    8   13   -0.000931    0.000345
    4    0   -2    9   13    0.004419   -0.000253
    4    0   -2   10   13   -0.002015    0.001202
    4    0   -2   11   13    0.002111   -0.000547
    4    0   -2   12   13    0.001660   -0.002301
    4    0   -2   13   13    0.001890   -0.000482
    4    0   -2   14   13   -0.000126    0.006016
    4    0   -2    1   14    0.000563    0.001429
    4    0   -2    2   14   -0.000673   -0.001034
    4    0   -2    3   14    0.000434   -0.000489
    4    0   -2    4   14   -0.000414   -0.001803
    4    0   -2    5   14   -0.000795    0.005727
    4    0   -2    6   14   -0.003763   -0.000337
    4    0   -2    7   14    0.000535   -0.000639
    4    0   -2    8   14   -0.000866   -0.000011
    4    0   -2    9   14    0.002720    0.000023
    4    0   -2   10   14    0.003394    0.000755
    4    0   -2   11   14    0.005540   -0.001223
    4    0   -2   12   14   -0.002641   -0.000713
    4    0   -2   13   14    0.000066   -0.005593
    4    0   -2   14   14    0.000762    0.000205
