 
             +---------------------------------------------------+
             |                                                   |
             |                   WANNIER90                       |
             |                                                   |
             +---------------------------------------------------+
             |                                                   |
             |        Welcome to the Maximally-Localized         |
             |        Generalized Wannier Functions code         |
             |            http://www.wannier.org                 |
             |                                                   |
             |  Wannier90 Authors:                               |
             |    Arash A. Mostofi   (Imperial College London)   |
             |    Jonathan R. Yates  (University of Oxford)      |
             |    Young-Su Lee       (KIST, S. Korea)            |
             |                                                   |
             |  Wannier90 Contributors:                          |
             |    Matthew Shelley    (Imperial College London)   |
             |    Nicolas Poilvert   (MIT)                       |
             |                                                   |
             |  Wannier77 Authors:                               |
             |    Nicola Marzari     (University of Oxford)      |
             |    Ivo Souza          (UC Berkeley)               |
             |    David Vanderbilt   (Rutgers University)        |
             |                                                   |
             |  Please cite                                      |
             |                                                   |
             |  [ref] "Wannier90: A Tool for Obtaining Maximally |
             |         Localised Wannier Functions"              |
             |        A. A. Mostofi, J. R. Yates, Y.-S. Lee,     |
             |        I. Souza, D. Vanderbilt and N. Marzari     |
             |        Comput. Phys. Commun. 178, 685 (2008)      |
             |                                                   |
             |  in any publications arising from the use of      |
             |  this code. For the method please cite            |
             |                                                   |
             |  [ref] "Maximally Localized Generalised Wannier   |
             |         Functions for Composite Energy Bands"     |
             |         N. Marzari and D. Vanderbilt              |
             |         Phys. Rev. B 56 12847 (1997)              |
             |                                                   |
             |  [ref] "Maximally Localized Wannier Functions     |
             |         for Entangled Energy Bands"               |
             |         I. Souza, N. Marzari and D. Vanderbilt    |
             |         Phys. Rev. B 65 035109 (2001)             |
             |                                                   |
             |                                                   |
             | Copyright (c) 1996-2010                           |
             |        A. A. Mostofi, J. R. Yates, Y.-S. Lee,     |
             |        I. Souza, D. Vanderbilt and N. Marzari     |
             |                                                   |
             |        Release: 1.2        24th Jan 2010          |
             |                                                   |
             | This program is free software; you can            |
             | redistribute it and/or modify it under the terms  |
             | of the GNU General Public License as published by |
             | the Free Software Foundation; either version 2 of |
             | the License, or (at your option) any later version|
             |                                                   |
             | This program is distributed in the hope that it   |
             | will be useful, but WITHOUT ANY WARRANTY; without |
             | even the implied warranty of MERCHANTABILITY or   |
             | FITNESS FOR A PARTICULAR PURPOSE. See the GNU     |
             | General Public License for more details.          |
             |                                                   |
             | You should have received a copy of the GNU General|
             | Public License along with this program; if not,   |
             | write to the Free Software Foundation, Inc.,      |
             | 675 Mass Ave, Cambridge, MA 02139, USA.           |
             |                                                   |
             +---------------------------------------------------+
             |    Execution started on  8May2016 at 13:49:46     |
             +---------------------------------------------------+
 
                                    ------
                                    SYSTEM
                                    ------
 
                              Lattice Vectors (Ang)
                    a_1    -2.069000  -3.583614   0.000000
                    a_2     2.069000  -3.583614   0.000000
                    a_3     0.000000   2.389075   9.546667
 
                   Unit Cell Volume:     141.56747  (Ang^3)
 
                        Reciprocal-Space Vectors (Ang^-1)
                    b_1    -1.518411  -0.876655   0.219385
                    b_2     1.518411  -0.876655   0.219385
                    b_3     0.000000   0.000000   0.658155
  
 *----------------------------------------------------------------------------*
 |   Site       Fractional Coordinate          Cartesian Coordinate (Ang)     |
 +----------------------------------------------------------------------------+
 | Bi   1   0.39900   0.39900   0.69700   |    0.00000  -1.19454   6.65403    |
 | Bi   2   0.60100   0.60100   0.30300   |    0.00000  -3.58361   2.89264    |
 | Se   1  -0.00000  -0.00000   0.50000   |    0.00000   1.19454   4.77333    |
 | Se   2   0.20600   0.20600   0.11800   |    0.00000  -1.19454   1.12651    |
 | Se   3   0.79400   0.79400   0.88200   |    0.00000  -3.58361   8.42016    |
 *----------------------------------------------------------------------------*
  
                                -----------
                                PROJECTIONS
                                -----------
  
 +----------------------------------------------------------------------------+
 |     Frac. Coord.   l mr  r        z-axis               x-axis          Z/a |
 +----------------------------------------------------------------------------+
 |  0.40  0.40  0.70  1  1  1  0.000  0.000  1.000  1.000  0.000  0.000   1.0 |
 |  0.40  0.40  0.70  1  2  1  0.000  0.000  1.000  1.000  0.000  0.000   1.0 |
 |  0.40  0.40  0.70  1  3  1  0.000  0.000  1.000  1.000  0.000  0.000   1.0 |
 |  0.60  0.60  0.30  1  1  1  0.000  0.000  1.000  1.000  0.000  0.000   1.0 |
 |  0.60  0.60  0.30  1  2  1  0.000  0.000  1.000  1.000  0.000  0.000   1.0 |
 |  0.60  0.60  0.30  1  3  1  0.000  0.000  1.000  1.000  0.000  0.000   1.0 |
 | -0.00 -0.00  0.50  1  1  1  0.000  0.000  1.000  1.000  0.000  0.000   1.0 |
 | -0.00 -0.00  0.50  1  2  1  0.000  0.000  1.000  1.000  0.000  0.000   1.0 |
 | -0.00 -0.00  0.50  1  3  1  0.000  0.000  1.000  1.000  0.000  0.000   1.0 |
 |  0.21  0.21  0.12  1  1  1  0.000  0.000  1.000  1.000  0.000  0.000   1.0 |
 |  0.21  0.21  0.12  1  2  1  0.000  0.000  1.000  1.000  0.000  0.000   1.0 |
 |  0.21  0.21  0.12  1  3  1  0.000  0.000  1.000  1.000  0.000  0.000   1.0 |
 |  0.79  0.79  0.88  1  1  1  0.000  0.000  1.000  1.000  0.000  0.000   1.0 |
 |  0.79  0.79  0.88  1  2  1  0.000  0.000  1.000  1.000  0.000  0.000   1.0 |
 |  0.79  0.79  0.88  1  3  1  0.000  0.000  1.000  1.000  0.000  0.000   1.0 |
 +----------------------------------------------------------------------------+
  
                                ------------
                                K-POINT GRID
                                ------------
  
             Grid size =  8 x  8 x  8      Total points =  512
  
 *----------------------------------------------------------------------------*
 | k-point      Fractional Coordinate        Cartesian Coordinate (Ang^-1)    |
 +----------------------------------------------------------------------------+
 |     1    0.00000   0.00000   0.00000   |    0.00000   0.00000   0.00000    |
 |     2    0.12500   0.00000   0.00000   |   -0.18980  -0.10958   0.02742    |
 |     3    0.25000   0.00000   0.00000   |   -0.37960  -0.21916   0.05485    |
 |     4    0.37500   0.00000   0.00000   |   -0.56940  -0.32875   0.08227    |
 |     5    0.50000   0.00000   0.00000   |   -0.75921  -0.43833   0.10969    |
 |     6   -0.37500   0.00000   0.00000   |    0.56940   0.32875  -0.08227    |
 |     7   -0.25000   0.00000   0.00000   |    0.37960   0.21916  -0.05485    |
 |     8   -0.12500   0.00000   0.00000   |    0.18980   0.10958  -0.02742    |
 |     9    0.00000   0.12500   0.00000   |    0.18980  -0.10958   0.02742    |
 |    10    0.12500   0.12500   0.00000   |    0.00000  -0.21916   0.05485    |
 |    11    0.25000   0.12500   0.00000   |   -0.18980  -0.32875   0.08227    |
 |    12    0.37500   0.12500   0.00000   |   -0.37960  -0.43833   0.10969    |
 |    13    0.50000   0.12500   0.00000   |   -0.56940  -0.54791   0.13712    |
 |    14   -0.37500   0.12500   0.00000   |    0.75921   0.21916  -0.05485    |
 |    15   -0.25000   0.12500   0.00000   |    0.56940   0.10958  -0.02742    |
 |    16   -0.12500   0.12500   0.00000   |    0.37960   0.00000   0.00000    |
 |    17    0.00000   0.25000   0.00000   |    0.37960  -0.21916   0.05485    |
 |    18    0.12500   0.25000   0.00000   |    0.18980  -0.32875   0.08227    |
 |    19    0.25000   0.25000   0.00000   |    0.00000  -0.43833   0.10969    |
 |    20    0.37500   0.25000   0.00000   |   -0.18980  -0.54791   0.13712    |
 |    21    0.50000   0.25000   0.00000   |   -0.37960  -0.65749   0.16454    |
 |    22   -0.37500   0.25000   0.00000   |    0.94901   0.10958  -0.02742    |
 |    23   -0.25000   0.25000   0.00000   |    0.75921   0.00000   0.00000    |
 |    24   -0.12500   0.25000   0.00000   |    0.56940  -0.10958   0.02742    |
 |    25    0.00000   0.37500   0.00000   |    0.56940  -0.32875   0.08227    |
 |    26    0.12500   0.37500   0.00000   |    0.37960  -0.43833   0.10969    |
 |    27    0.25000   0.37500   0.00000   |    0.18980  -0.54791   0.13712    |
 |    28    0.37500   0.37500   0.00000   |    0.00000  -0.65749   0.16454    |
 |    29    0.50000   0.37500   0.00000   |   -0.18980  -0.76707   0.19196    |
 |    30   -0.37500   0.37500   0.00000   |    1.13881   0.00000   0.00000    |
 |    31   -0.25000   0.37500   0.00000   |    0.94901  -0.10958   0.02742    |
 |    32   -0.12500   0.37500   0.00000   |    0.75921  -0.21916   0.05485    |
 |    33    0.00000   0.50000   0.00000   |    0.75921  -0.43833   0.10969    |
 |    34    0.12500   0.50000   0.00000   |    0.56940  -0.54791   0.13712    |
 |    35    0.25000   0.50000   0.00000   |    0.37960  -0.65749   0.16454    |
 |    36    0.37500   0.50000   0.00000   |    0.18980  -0.76707   0.19196    |
 |    37    0.50000   0.50000   0.00000   |    0.00000  -0.87665   0.21938    |
 |    38   -0.37500   0.50000   0.00000   |    1.32861  -0.10958   0.02742    |
 |    39   -0.25000   0.50000   0.00000   |    1.13881  -0.21916   0.05485    |
 |    40   -0.12500   0.50000   0.00000   |    0.94901  -0.32875   0.08227    |
 |    41    0.00000  -0.37500   0.00000   |   -0.56940   0.32875  -0.08227    |
 |    42    0.12500  -0.37500   0.00000   |   -0.75921   0.21916  -0.05485    |
 |    43    0.25000  -0.37500   0.00000   |   -0.94901   0.10958  -0.02742    |
 |    44    0.37500  -0.37500   0.00000   |   -1.13881   0.00000   0.00000    |
 |    45    0.50000  -0.37500   0.00000   |   -1.32861  -0.10958   0.02742    |
 |    46   -0.37500  -0.37500   0.00000   |    0.00000   0.65749  -0.16454    |
 |    47   -0.25000  -0.37500   0.00000   |   -0.18980   0.54791  -0.13712    |
 |    48   -0.12500  -0.37500   0.00000   |   -0.37960   0.43833  -0.10969    |
 |    49    0.00000  -0.25000   0.00000   |   -0.37960   0.21916  -0.05485    |
 |    50    0.12500  -0.25000   0.00000   |   -0.56940   0.10958  -0.02742    |
 |    51    0.25000  -0.25000   0.00000   |   -0.75921   0.00000   0.00000    |
 |    52    0.37500  -0.25000   0.00000   |   -0.94901  -0.10958   0.02742    |
 |    53    0.50000  -0.25000   0.00000   |   -1.13881  -0.21916   0.05485    |
 |    54   -0.37500  -0.25000   0.00000   |    0.18980   0.54791  -0.13712    |
 |    55   -0.25000  -0.25000   0.00000   |    0.00000   0.43833  -0.10969    |
 |    56   -0.12500  -0.25000   0.00000   |   -0.18980   0.32875  -0.08227    |
 |    57    0.00000  -0.12500   0.00000   |   -0.18980   0.10958  -0.02742    |
 |    58    0.12500  -0.12500   0.00000   |   -0.37960   0.00000   0.00000    |
 |    59    0.25000  -0.12500   0.00000   |   -0.56940  -0.10958   0.02742    |
 |    60    0.37500  -0.12500   0.00000   |   -0.75921  -0.21916   0.05485    |
 |    61    0.50000  -0.12500   0.00000   |   -0.94901  -0.32875   0.08227    |
 |    62   -0.37500  -0.12500   0.00000   |    0.37960   0.43833  -0.10969    |
 |    63   -0.25000  -0.12500   0.00000   |    0.18980   0.32875  -0.08227    |
 |    64   -0.12500  -0.12500   0.00000   |    0.00000   0.21916  -0.05485    |
 |    65    0.00000   0.00000   0.12500   |    0.00000   0.00000   0.08227    |
 |    66    0.12500   0.00000   0.12500   |   -0.18980  -0.10958   0.10969    |
 |    67    0.25000   0.00000   0.12500   |   -0.37960  -0.21916   0.13712    |
 |    68    0.37500   0.00000   0.12500   |   -0.56940  -0.32875   0.16454    |
 |    69    0.50000   0.00000   0.12500   |   -0.75921  -0.43833   0.19196    |
 |    70   -0.37500   0.00000   0.12500   |    0.56940   0.32875   0.00000    |
 |    71   -0.25000   0.00000   0.12500   |    0.37960   0.21916   0.02742    |
 |    72   -0.12500   0.00000   0.12500   |    0.18980   0.10958   0.05485    |
 |    73    0.00000   0.12500   0.12500   |    0.18980  -0.10958   0.10969    |
 |    74    0.12500   0.12500   0.12500   |    0.00000  -0.21916   0.13712    |
 |    75    0.25000   0.12500   0.12500   |   -0.18980  -0.32875   0.16454    |
 |    76    0.37500   0.12500   0.12500   |   -0.37960  -0.43833   0.19196    |
 |    77    0.50000   0.12500   0.12500   |   -0.56940  -0.54791   0.21938    |
 |    78   -0.37500   0.12500   0.12500   |    0.75921   0.21916   0.02742    |
 |    79   -0.25000   0.12500   0.12500   |    0.56940   0.10958   0.05485    |
 |    80   -0.12500   0.12500   0.12500   |    0.37960   0.00000   0.08227    |
 |    81    0.00000   0.25000   0.12500   |    0.37960  -0.21916   0.13712    |
 |    82    0.12500   0.25000   0.12500   |    0.18980  -0.32875   0.16454    |
 |    83    0.25000   0.25000   0.12500   |    0.00000  -0.43833   0.19196    |
 |    84    0.37500   0.25000   0.12500   |   -0.18980  -0.54791   0.21938    |
 |    85    0.50000   0.25000   0.12500   |   -0.37960  -0.65749   0.24681    |
 |    86   -0.37500   0.25000   0.12500   |    0.94901   0.10958   0.05485    |
 |    87   -0.25000   0.25000   0.12500   |    0.75921   0.00000   0.08227    |
 |    88   -0.12500   0.25000   0.12500   |    0.56940  -0.10958   0.10969    |
 |    89    0.00000   0.37500   0.12500   |    0.56940  -0.32875   0.16454    |
 |    90    0.12500   0.37500   0.12500   |    0.37960  -0.43833   0.19196    |
 |    91    0.25000   0.37500   0.12500   |    0.18980  -0.54791   0.21938    |
 |    92    0.37500   0.37500   0.12500   |    0.00000  -0.65749   0.24681    |
 |    93    0.50000   0.37500   0.12500   |   -0.18980  -0.76707   0.27423    |
 |    94   -0.37500   0.37500   0.12500   |    1.13881   0.00000   0.08227    |
 |    95   -0.25000   0.37500   0.12500   |    0.94901  -0.10958   0.10969    |
 |    96   -0.12500   0.37500   0.12500   |    0.75921  -0.21916   0.13712    |
 |    97    0.00000   0.50000   0.12500   |    0.75921  -0.43833   0.19196    |
 |    98    0.12500   0.50000   0.12500   |    0.56940  -0.54791   0.21938    |
 |    99    0.25000   0.50000   0.12500   |    0.37960  -0.65749   0.24681    |
 |   100    0.37500   0.50000   0.12500   |    0.18980  -0.76707   0.27423    |
 |   101    0.50000   0.50000   0.12500   |    0.00000  -0.87665   0.30165    |
 |   102   -0.37500   0.50000   0.12500   |    1.32861  -0.10958   0.10969    |
 |   103   -0.25000   0.50000   0.12500   |    1.13881  -0.21916   0.13712    |
 |   104   -0.12500   0.50000   0.12500   |    0.94901  -0.32875   0.16454    |
 |   105    0.00000  -0.37500   0.12500   |   -0.56940   0.32875   0.00000    |
 |   106    0.12500  -0.37500   0.12500   |   -0.75921   0.21916   0.02742    |
 |   107    0.25000  -0.37500   0.12500   |   -0.94901   0.10958   0.05485    |
 |   108    0.37500  -0.37500   0.12500   |   -1.13881   0.00000   0.08227    |
 |   109    0.50000  -0.37500   0.12500   |   -1.32861  -0.10958   0.10969    |
 |   110   -0.37500  -0.37500   0.12500   |    0.00000   0.65749  -0.08227    |
 |   111   -0.25000  -0.37500   0.12500   |   -0.18980   0.54791  -0.05485    |
 |   112   -0.12500  -0.37500   0.12500   |   -0.37960   0.43833  -0.02742    |
 |   113    0.00000  -0.25000   0.12500   |   -0.37960   0.21916   0.02742    |
 |   114    0.12500  -0.25000   0.12500   |   -0.56940   0.10958   0.05485    |
 |   115    0.25000  -0.25000   0.12500   |   -0.75921   0.00000   0.08227    |
 |   116    0.37500  -0.25000   0.12500   |   -0.94901  -0.10958   0.10969    |
 |   117    0.50000  -0.25000   0.12500   |   -1.13881  -0.21916   0.13712    |
 |   118   -0.37500  -0.25000   0.12500   |    0.18980   0.54791  -0.05485    |
 |   119   -0.25000  -0.25000   0.12500   |    0.00000   0.43833  -0.02742    |
 |   120   -0.12500  -0.25000   0.12500   |   -0.18980   0.32875   0.00000    |
 |   121    0.00000  -0.12500   0.12500   |   -0.18980   0.10958   0.05485    |
 |   122    0.12500  -0.12500   0.12500   |   -0.37960   0.00000   0.08227    |
 |   123    0.25000  -0.12500   0.12500   |   -0.56940  -0.10958   0.10969    |
 |   124    0.37500  -0.12500   0.12500   |   -0.75921  -0.21916   0.13712    |
 |   125    0.50000  -0.12500   0.12500   |   -0.94901  -0.32875   0.16454    |
 |   126   -0.37500  -0.12500   0.12500   |    0.37960   0.43833  -0.02742    |
 |   127   -0.25000  -0.12500   0.12500   |    0.18980   0.32875   0.00000    |
 |   128   -0.12500  -0.12500   0.12500   |    0.00000   0.21916   0.02742    |
 |   129    0.00000   0.00000   0.25000   |    0.00000   0.00000   0.16454    |
 |   130    0.12500   0.00000   0.25000   |   -0.18980  -0.10958   0.19196    |
 |   131    0.25000   0.00000   0.25000   |   -0.37960  -0.21916   0.21938    |
 |   132    0.37500   0.00000   0.25000   |   -0.56940  -0.32875   0.24681    |
 |   133    0.50000   0.00000   0.25000   |   -0.75921  -0.43833   0.27423    |
 |   134   -0.37500   0.00000   0.25000   |    0.56940   0.32875   0.08227    |
 |   135   -0.25000   0.00000   0.25000   |    0.37960   0.21916   0.10969    |
 |   136   -0.12500   0.00000   0.25000   |    0.18980   0.10958   0.13712    |
 |   137    0.00000   0.12500   0.25000   |    0.18980  -0.10958   0.19196    |
 |   138    0.12500   0.12500   0.25000   |    0.00000  -0.21916   0.21938    |
 |   139    0.25000   0.12500   0.25000   |   -0.18980  -0.32875   0.24681    |
 |   140    0.37500   0.12500   0.25000   |   -0.37960  -0.43833   0.27423    |
 |   141    0.50000   0.12500   0.25000   |   -0.56940  -0.54791   0.30165    |
 |   142   -0.37500   0.12500   0.25000   |    0.75921   0.21916   0.10969    |
 |   143   -0.25000   0.12500   0.25000   |    0.56940   0.10958   0.13712    |
 |   144   -0.12500   0.12500   0.25000   |    0.37960   0.00000   0.16454    |
 |   145    0.00000   0.25000   0.25000   |    0.37960  -0.21916   0.21938    |
 |   146    0.12500   0.25000   0.25000   |    0.18980  -0.32875   0.24681    |
 |   147    0.25000   0.25000   0.25000   |    0.00000  -0.43833   0.27423    |
 |   148    0.37500   0.25000   0.25000   |   -0.18980  -0.54791   0.30165    |
 |   149    0.50000   0.25000   0.25000   |   -0.37960  -0.65749   0.32908    |
 |   150   -0.37500   0.25000   0.25000   |    0.94901   0.10958   0.13712    |
 |   151   -0.25000   0.25000   0.25000   |    0.75921   0.00000   0.16454    |
 |   152   -0.12500   0.25000   0.25000   |    0.56940  -0.10958   0.19196    |
 |   153    0.00000   0.37500   0.25000   |    0.56940  -0.32875   0.24681    |
 |   154    0.12500   0.37500   0.25000   |    0.37960  -0.43833   0.27423    |
 |   155    0.25000   0.37500   0.25000   |    0.18980  -0.54791   0.30165    |
 |   156    0.37500   0.37500   0.25000   |    0.00000  -0.65749   0.32908    |
 |   157    0.50000   0.37500   0.25000   |   -0.18980  -0.76707   0.35650    |
 |   158   -0.37500   0.37500   0.25000   |    1.13881   0.00000   0.16454    |
 |   159   -0.25000   0.37500   0.25000   |    0.94901  -0.10958   0.19196    |
 |   160   -0.12500   0.37500   0.25000   |    0.75921  -0.21916   0.21938    |
 |   161    0.00000   0.50000   0.25000   |    0.75921  -0.43833   0.27423    |
 |   162    0.12500   0.50000   0.25000   |    0.56940  -0.54791   0.30165    |
 |   163    0.25000   0.50000   0.25000   |    0.37960  -0.65749   0.32908    |
 |   164    0.37500   0.50000   0.25000   |    0.18980  -0.76707   0.35650    |
 |   165    0.50000   0.50000   0.25000   |    0.00000  -0.87665   0.38392    |
 |   166   -0.37500   0.50000   0.25000   |    1.32861  -0.10958   0.19196    |
 |   167   -0.25000   0.50000   0.25000   |    1.13881  -0.21916   0.21938    |
 |   168   -0.12500   0.50000   0.25000   |    0.94901  -0.32875   0.24681    |
 |   169    0.00000  -0.37500   0.25000   |   -0.56940   0.32875   0.08227    |
 |   170    0.12500  -0.37500   0.25000   |   -0.75921   0.21916   0.10969    |
 |   171    0.25000  -0.37500   0.25000   |   -0.94901   0.10958   0.13712    |
 |   172    0.37500  -0.37500   0.25000   |   -1.13881   0.00000   0.16454    |
 |   173    0.50000  -0.37500   0.25000   |   -1.32861  -0.10958   0.19196    |
 |   174   -0.37500  -0.37500   0.25000   |    0.00000   0.65749   0.00000    |
 |   175   -0.25000  -0.37500   0.25000   |   -0.18980   0.54791   0.02742    |
 |   176   -0.12500  -0.37500   0.25000   |   -0.37960   0.43833   0.05485    |
 |   177    0.00000  -0.25000   0.25000   |   -0.37960   0.21916   0.10969    |
 |   178    0.12500  -0.25000   0.25000   |   -0.56940   0.10958   0.13712    |
 |   179    0.25000  -0.25000   0.25000   |   -0.75921   0.00000   0.16454    |
 |   180    0.37500  -0.25000   0.25000   |   -0.94901  -0.10958   0.19196    |
 |   181    0.50000  -0.25000   0.25000   |   -1.13881  -0.21916   0.21938    |
 |   182   -0.37500  -0.25000   0.25000   |    0.18980   0.54791   0.02742    |
 |   183   -0.25000  -0.25000   0.25000   |    0.00000   0.43833   0.05485    |
 |   184   -0.12500  -0.25000   0.25000   |   -0.18980   0.32875   0.08227    |
 |   185    0.00000  -0.12500   0.25000   |   -0.18980   0.10958   0.13712    |
 |   186    0.12500  -0.12500   0.25000   |   -0.37960   0.00000   0.16454    |
 |   187    0.25000  -0.12500   0.25000   |   -0.56940  -0.10958   0.19196    |
 |   188    0.37500  -0.12500   0.25000   |   -0.75921  -0.21916   0.21938    |
 |   189    0.50000  -0.12500   0.25000   |   -0.94901  -0.32875   0.24681    |
 |   190   -0.37500  -0.12500   0.25000   |    0.37960   0.43833   0.05485    |
 |   191   -0.25000  -0.12500   0.25000   |    0.18980   0.32875   0.08227    |
 |   192   -0.12500  -0.12500   0.25000   |    0.00000   0.21916   0.10969    |
 |   193    0.00000   0.00000   0.37500   |    0.00000   0.00000   0.24681    |
 |   194    0.12500   0.00000   0.37500   |   -0.18980  -0.10958   0.27423    |
 |   195    0.25000   0.00000   0.37500   |   -0.37960  -0.21916   0.30165    |
 |   196    0.37500   0.00000   0.37500   |   -0.56940  -0.32875   0.32908    |
 |   197    0.50000   0.00000   0.37500   |   -0.75921  -0.43833   0.35650    |
 |   198   -0.37500   0.00000   0.37500   |    0.56940   0.32875   0.16454    |
 |   199   -0.25000   0.00000   0.37500   |    0.37960   0.21916   0.19196    |
 |   200   -0.12500   0.00000   0.37500   |    0.18980   0.10958   0.21938    |
 |   201    0.00000   0.12500   0.37500   |    0.18980  -0.10958   0.27423    |
 |   202    0.12500   0.12500   0.37500   |    0.00000  -0.21916   0.30165    |
 |   203    0.25000   0.12500   0.37500   |   -0.18980  -0.32875   0.32908    |
 |   204    0.37500   0.12500   0.37500   |   -0.37960  -0.43833   0.35650    |
 |   205    0.50000   0.12500   0.37500   |   -0.56940  -0.54791   0.38392    |
 |   206   -0.37500   0.12500   0.37500   |    0.75921   0.21916   0.19196    |
 |   207   -0.25000   0.12500   0.37500   |    0.56940   0.10958   0.21938    |
 |   208   -0.12500   0.12500   0.37500   |    0.37960   0.00000   0.24681    |
 |   209    0.00000   0.25000   0.37500   |    0.37960  -0.21916   0.30165    |
 |   210    0.12500   0.25000   0.37500   |    0.18980  -0.32875   0.32908    |
 |   211    0.25000   0.25000   0.37500   |    0.00000  -0.43833   0.35650    |
 |   212    0.37500   0.25000   0.37500   |   -0.18980  -0.54791   0.38392    |
 |   213    0.50000   0.25000   0.37500   |   -0.37960  -0.65749   0.41135    |
 |   214   -0.37500   0.25000   0.37500   |    0.94901   0.10958   0.21938    |
 |   215   -0.25000   0.25000   0.37500   |    0.75921   0.00000   0.24681    |
 |   216   -0.12500   0.25000   0.37500   |    0.56940  -0.10958   0.27423    |
 |   217    0.00000   0.37500   0.37500   |    0.56940  -0.32875   0.32908    |
 |   218    0.12500   0.37500   0.37500   |    0.37960  -0.43833   0.35650    |
 |   219    0.25000   0.37500   0.37500   |    0.18980  -0.54791   0.38392    |
 |   220    0.37500   0.37500   0.37500   |    0.00000  -0.65749   0.41135    |
 |   221    0.50000   0.37500   0.37500   |   -0.18980  -0.76707   0.43877    |
 |   222   -0.37500   0.37500   0.37500   |    1.13881   0.00000   0.24681    |
 |   223   -0.25000   0.37500   0.37500   |    0.94901  -0.10958   0.27423    |
 |   224   -0.12500   0.37500   0.37500   |    0.75921  -0.21916   0.30165    |
 |   225    0.00000   0.50000   0.37500   |    0.75921  -0.43833   0.35650    |
 |   226    0.12500   0.50000   0.37500   |    0.56940  -0.54791   0.38392    |
 |   227    0.25000   0.50000   0.37500   |    0.37960  -0.65749   0.41135    |
 |   228    0.37500   0.50000   0.37500   |    0.18980  -0.76707   0.43877    |
 |   229    0.50000   0.50000   0.37500   |    0.00000  -0.87665   0.46619    |
 |   230   -0.37500   0.50000   0.37500   |    1.32861  -0.10958   0.27423    |
 |   231   -0.25000   0.50000   0.37500   |    1.13881  -0.21916   0.30165    |
 |   232   -0.12500   0.50000   0.37500   |    0.94901  -0.32875   0.32908    |
 |   233    0.00000  -0.37500   0.37500   |   -0.56940   0.32875   0.16454    |
 |   234    0.12500  -0.37500   0.37500   |   -0.75921   0.21916   0.19196    |
 |   235    0.25000  -0.37500   0.37500   |   -0.94901   0.10958   0.21938    |
 |   236    0.37500  -0.37500   0.37500   |   -1.13881   0.00000   0.24681    |
 |   237    0.50000  -0.37500   0.37500   |   -1.32861  -0.10958   0.27423    |
 |   238   -0.37500  -0.37500   0.37500   |    0.00000   0.65749   0.08227    |
 |   239   -0.25000  -0.37500   0.37500   |   -0.18980   0.54791   0.10969    |
 |   240   -0.12500  -0.37500   0.37500   |   -0.37960   0.43833   0.13712    |
 |   241    0.00000  -0.25000   0.37500   |   -0.37960   0.21916   0.19196    |
 |   242    0.12500  -0.25000   0.37500   |   -0.56940   0.10958   0.21938    |
 |   243    0.25000  -0.25000   0.37500   |   -0.75921   0.00000   0.24681    |
 |   244    0.37500  -0.25000   0.37500   |   -0.94901  -0.10958   0.27423    |
 |   245    0.50000  -0.25000   0.37500   |   -1.13881  -0.21916   0.30165    |
 |   246   -0.37500  -0.25000   0.37500   |    0.18980   0.54791   0.10969    |
 |   247   -0.25000  -0.25000   0.37500   |    0.00000   0.43833   0.13712    |
 |   248   -0.12500  -0.25000   0.37500   |   -0.18980   0.32875   0.16454    |
 |   249    0.00000  -0.12500   0.37500   |   -0.18980   0.10958   0.21938    |
 |   250    0.12500  -0.12500   0.37500   |   -0.37960   0.00000   0.24681    |
 |   251    0.25000  -0.12500   0.37500   |   -0.56940  -0.10958   0.27423    |
 |   252    0.37500  -0.12500   0.37500   |   -0.75921  -0.21916   0.30165    |
 |   253    0.50000  -0.12500   0.37500   |   -0.94901  -0.32875   0.32908    |
 |   254   -0.37500  -0.12500   0.37500   |    0.37960   0.43833   0.13712    |
 |   255   -0.25000  -0.12500   0.37500   |    0.18980   0.32875   0.16454    |
 |   256   -0.12500  -0.12500   0.37500   |    0.00000   0.21916   0.19196    |
 |   257    0.00000   0.00000   0.50000   |    0.00000   0.00000   0.32908    |
 |   258    0.12500   0.00000   0.50000   |   -0.18980  -0.10958   0.35650    |
 |   259    0.25000   0.00000   0.50000   |   -0.37960  -0.21916   0.38392    |
 |   260    0.37500   0.00000   0.50000   |   -0.56940  -0.32875   0.41135    |
 |   261    0.50000   0.00000   0.50000   |   -0.75921  -0.43833   0.43877    |
 |   262   -0.37500   0.00000   0.50000   |    0.56940   0.32875   0.24681    |
 |   263   -0.25000   0.00000   0.50000   |    0.37960   0.21916   0.27423    |
 |   264   -0.12500   0.00000   0.50000   |    0.18980   0.10958   0.30165    |
 |   265    0.00000   0.12500   0.50000   |    0.18980  -0.10958   0.35650    |
 |   266    0.12500   0.12500   0.50000   |    0.00000  -0.21916   0.38392    |
 |   267    0.25000   0.12500   0.50000   |   -0.18980  -0.32875   0.41135    |
 |   268    0.37500   0.12500   0.50000   |   -0.37960  -0.43833   0.43877    |
 |   269    0.50000   0.12500   0.50000   |   -0.56940  -0.54791   0.46619    |
 |   270   -0.37500   0.12500   0.50000   |    0.75921   0.21916   0.27423    |
 |   271   -0.25000   0.12500   0.50000   |    0.56940   0.10958   0.30165    |
 |   272   -0.12500   0.12500   0.50000   |    0.37960   0.00000   0.32908    |
 |   273    0.00000   0.25000   0.50000   |    0.37960  -0.21916   0.38392    |
 |   274    0.12500   0.25000   0.50000   |    0.18980  -0.32875   0.41135    |
 |   275    0.25000   0.25000   0.50000   |    0.00000  -0.43833   0.43877    |
 |   276    0.37500   0.25000   0.50000   |   -0.18980  -0.54791   0.46619    |
 |   277    0.50000   0.25000   0.50000   |   -0.37960  -0.65749   0.49362    |
 |   278   -0.37500   0.25000   0.50000   |    0.94901   0.10958   0.30165    |
 |   279   -0.25000   0.25000   0.50000   |    0.75921   0.00000   0.32908    |
 |   280   -0.12500   0.25000   0.50000   |    0.56940  -0.10958   0.35650    |
 |   281    0.00000   0.37500   0.50000   |    0.56940  -0.32875   0.41135    |
 |   282    0.12500   0.37500   0.50000   |    0.37960  -0.43833   0.43877    |
 |   283    0.25000   0.37500   0.50000   |    0.18980  -0.54791   0.46619    |
 |   284    0.37500   0.37500   0.50000   |    0.00000  -0.65749   0.49362    |
 |   285    0.50000   0.37500   0.50000   |   -0.18980  -0.76707   0.52104    |
 |   286   -0.37500   0.37500   0.50000   |    1.13881   0.00000   0.32908    |
 |   287   -0.25000   0.37500   0.50000   |    0.94901  -0.10958   0.35650    |
 |   288   -0.12500   0.37500   0.50000   |    0.75921  -0.21916   0.38392    |
 |   289    0.00000   0.50000   0.50000   |    0.75921  -0.43833   0.43877    |
 |   290    0.12500   0.50000   0.50000   |    0.56940  -0.54791   0.46619    |
 |   291    0.25000   0.50000   0.50000   |    0.37960  -0.65749   0.49362    |
 |   292    0.37500   0.50000   0.50000   |    0.18980  -0.76707   0.52104    |
 |   293    0.50000   0.50000   0.50000   |    0.00000  -0.87665   0.54846    |
 |   294   -0.37500   0.50000   0.50000   |    1.32861  -0.10958   0.35650    |
 |   295   -0.25000   0.50000   0.50000   |    1.13881  -0.21916   0.38392    |
 |   296   -0.12500   0.50000   0.50000   |    0.94901  -0.32875   0.41135    |
 |   297    0.00000  -0.37500   0.50000   |   -0.56940   0.32875   0.24681    |
 |   298    0.12500  -0.37500   0.50000   |   -0.75921   0.21916   0.27423    |
 |   299    0.25000  -0.37500   0.50000   |   -0.94901   0.10958   0.30165    |
 |   300    0.37500  -0.37500   0.50000   |   -1.13881   0.00000   0.32908    |
 |   301    0.50000  -0.37500   0.50000   |   -1.32861  -0.10958   0.35650    |
 |   302   -0.37500  -0.37500   0.50000   |    0.00000   0.65749   0.16454    |
 |   303   -0.25000  -0.37500   0.50000   |   -0.18980   0.54791   0.19196    |
 |   304   -0.12500  -0.37500   0.50000   |   -0.37960   0.43833   0.21939    |
 |   305    0.00000  -0.25000   0.50000   |   -0.37960   0.21916   0.27423    |
 |   306    0.12500  -0.25000   0.50000   |   -0.56940   0.10958   0.30165    |
 |   307    0.25000  -0.25000   0.50000   |   -0.75921   0.00000   0.32908    |
 |   308    0.37500  -0.25000   0.50000   |   -0.94901  -0.10958   0.35650    |
 |   309    0.50000  -0.25000   0.50000   |   -1.13881  -0.21916   0.38392    |
 |   310   -0.37500  -0.25000   0.50000   |    0.18980   0.54791   0.19196    |
 |   311   -0.25000  -0.25000   0.50000   |    0.00000   0.43833   0.21939    |
 |   312   -0.12500  -0.25000   0.50000   |   -0.18980   0.32875   0.24681    |
 |   313    0.00000  -0.12500   0.50000   |   -0.18980   0.10958   0.30165    |
 |   314    0.12500  -0.12500   0.50000   |   -0.37960   0.00000   0.32908    |
 |   315    0.25000  -0.12500   0.50000   |   -0.56940  -0.10958   0.35650    |
 |   316    0.37500  -0.12500   0.50000   |   -0.75921  -0.21916   0.38392    |
 |   317    0.50000  -0.12500   0.50000   |   -0.94901  -0.32875   0.41135    |
 |   318   -0.37500  -0.12500   0.50000   |    0.37960   0.43833   0.21939    |
 |   319   -0.25000  -0.12500   0.50000   |    0.18980   0.32875   0.24681    |
 |   320   -0.12500  -0.12500   0.50000   |    0.00000   0.21916   0.27423    |
 |   321    0.00000   0.00000  -0.37500   |    0.00000   0.00000  -0.24681    |
 |   322    0.12500   0.00000  -0.37500   |   -0.18980  -0.10958  -0.21938    |
 |   323    0.25000   0.00000  -0.37500   |   -0.37960  -0.21916  -0.19196    |
 |   324    0.37500   0.00000  -0.37500   |   -0.56940  -0.32875  -0.16454    |
 |   325    0.50000   0.00000  -0.37500   |   -0.75921  -0.43833  -0.13712    |
 |   326   -0.37500   0.00000  -0.37500   |    0.56940   0.32875  -0.32908    |
 |   327   -0.25000   0.00000  -0.37500   |    0.37960   0.21916  -0.30165    |
 |   328   -0.12500   0.00000  -0.37500   |    0.18980   0.10958  -0.27423    |
 |   329    0.00000   0.12500  -0.37500   |    0.18980  -0.10958  -0.21938    |
 |   330    0.12500   0.12500  -0.37500   |    0.00000  -0.21916  -0.19196    |
 |   331    0.25000   0.12500  -0.37500   |   -0.18980  -0.32875  -0.16454    |
 |   332    0.37500   0.12500  -0.37500   |   -0.37960  -0.43833  -0.13712    |
 |   333    0.50000   0.12500  -0.37500   |   -0.56940  -0.54791  -0.10969    |
 |   334   -0.37500   0.12500  -0.37500   |    0.75921   0.21916  -0.30165    |
 |   335   -0.25000   0.12500  -0.37500   |    0.56940   0.10958  -0.27423    |
 |   336   -0.12500   0.12500  -0.37500   |    0.37960   0.00000  -0.24681    |
 |   337    0.00000   0.25000  -0.37500   |    0.37960  -0.21916  -0.19196    |
 |   338    0.12500   0.25000  -0.37500   |    0.18980  -0.32875  -0.16454    |
 |   339    0.25000   0.25000  -0.37500   |    0.00000  -0.43833  -0.13712    |
 |   340    0.37500   0.25000  -0.37500   |   -0.18980  -0.54791  -0.10969    |
 |   341    0.50000   0.25000  -0.37500   |   -0.37960  -0.65749  -0.08227    |
 |   342   -0.37500   0.25000  -0.37500   |    0.94901   0.10958  -0.27423    |
 |   343   -0.25000   0.25000  -0.37500   |    0.75921   0.00000  -0.24681    |
 |   344   -0.12500   0.25000  -0.37500   |    0.56940  -0.10958  -0.21938    |
 |   345    0.00000   0.37500  -0.37500   |    0.56940  -0.32875  -0.16454    |
 |   346    0.12500   0.37500  -0.37500   |    0.37960  -0.43833  -0.13712    |
 |   347    0.25000   0.37500  -0.37500   |    0.18980  -0.54791  -0.10969    |
 |   348    0.37500   0.37500  -0.37500   |    0.00000  -0.65749  -0.08227    |
 |   349    0.50000   0.37500  -0.37500   |   -0.18980  -0.76707  -0.05485    |
 |   350   -0.37500   0.37500  -0.37500   |    1.13881   0.00000  -0.24681    |
 |   351   -0.25000   0.37500  -0.37500   |    0.94901  -0.10958  -0.21938    |
 |   352   -0.12500   0.37500  -0.37500   |    0.75921  -0.21916  -0.19196    |
 |   353    0.00000   0.50000  -0.37500   |    0.75921  -0.43833  -0.13712    |
 |   354    0.12500   0.50000  -0.37500   |    0.56940  -0.54791  -0.10969    |
 |   355    0.25000   0.50000  -0.37500   |    0.37960  -0.65749  -0.08227    |
 |   356    0.37500   0.50000  -0.37500   |    0.18980  -0.76707  -0.05485    |
 |   357    0.50000   0.50000  -0.37500   |    0.00000  -0.87665  -0.02742    |
 |   358   -0.37500   0.50000  -0.37500   |    1.32861  -0.10958  -0.21938    |
 |   359   -0.25000   0.50000  -0.37500   |    1.13881  -0.21916  -0.19196    |
 |   360   -0.12500   0.50000  -0.37500   |    0.94901  -0.32875  -0.16454    |
 |   361    0.00000  -0.37500  -0.37500   |   -0.56940   0.32875  -0.32908    |
 |   362    0.12500  -0.37500  -0.37500   |   -0.75921   0.21916  -0.30165    |
 |   363    0.25000  -0.37500  -0.37500   |   -0.94901   0.10958  -0.27423    |
 |   364    0.37500  -0.37500  -0.37500   |   -1.13881   0.00000  -0.24681    |
 |   365    0.50000  -0.37500  -0.37500   |   -1.32861  -0.10958  -0.21938    |
 |   366   -0.37500  -0.37500  -0.37500   |    0.00000   0.65749  -0.41135    |
 |   367   -0.25000  -0.37500  -0.37500   |   -0.18980   0.54791  -0.38392    |
 |   368   -0.12500  -0.37500  -0.37500   |   -0.37960   0.43833  -0.35650    |
 |   369    0.00000  -0.25000  -0.37500   |   -0.37960   0.21916  -0.30165    |
 |   370    0.12500  -0.25000  -0.37500   |   -0.56940   0.10958  -0.27423    |
 |   371    0.25000  -0.25000  -0.37500   |   -0.75921   0.00000  -0.24681    |
 |   372    0.37500  -0.25000  -0.37500   |   -0.94901  -0.10958  -0.21938    |
 |   373    0.50000  -0.25000  -0.37500   |   -1.13881  -0.21916  -0.19196    |
 |   374   -0.37500  -0.25000  -0.37500   |    0.18980   0.54791  -0.38392    |
 |   375   -0.25000  -0.25000  -0.37500   |    0.00000   0.43833  -0.35650    |
 |   376   -0.12500  -0.25000  -0.37500   |   -0.18980   0.32875  -0.32908    |
 |   377    0.00000  -0.12500  -0.37500   |   -0.18980   0.10958  -0.27423    |
 |   378    0.12500  -0.12500  -0.37500   |   -0.37960   0.00000  -0.24681    |
 |   379    0.25000  -0.12500  -0.37500   |   -0.56940  -0.10958  -0.21938    |
 |   380    0.37500  -0.12500  -0.37500   |   -0.75921  -0.21916  -0.19196    |
 |   381    0.50000  -0.12500  -0.37500   |   -0.94901  -0.32875  -0.16454    |
 |   382   -0.37500  -0.12500  -0.37500   |    0.37960   0.43833  -0.35650    |
 |   383   -0.25000  -0.12500  -0.37500   |    0.18980   0.32875  -0.32908    |
 |   384   -0.12500  -0.12500  -0.37500   |    0.00000   0.21916  -0.30165    |
 |   385    0.00000   0.00000  -0.25000   |    0.00000   0.00000  -0.16454    |
 |   386    0.12500   0.00000  -0.25000   |   -0.18980  -0.10958  -0.13712    |
 |   387    0.25000   0.00000  -0.25000   |   -0.37960  -0.21916  -0.10969    |
 |   388    0.37500   0.00000  -0.25000   |   -0.56940  -0.32875  -0.08227    |
 |   389    0.50000   0.00000  -0.25000   |   -0.75921  -0.43833  -0.05485    |
 |   390   -0.37500   0.00000  -0.25000   |    0.56940   0.32875  -0.24681    |
 |   391   -0.25000   0.00000  -0.25000   |    0.37960   0.21916  -0.21938    |
 |   392   -0.12500   0.00000  -0.25000   |    0.18980   0.10958  -0.19196    |
 |   393    0.00000   0.12500  -0.25000   |    0.18980  -0.10958  -0.13712    |
 |   394    0.12500   0.12500  -0.25000   |    0.00000  -0.21916  -0.10969    |
 |   395    0.25000   0.12500  -0.25000   |   -0.18980  -0.32875  -0.08227    |
 |   396    0.37500   0.12500  -0.25000   |   -0.37960  -0.43833  -0.05485    |
 |   397    0.50000   0.12500  -0.25000   |   -0.56940  -0.54791  -0.02742    |
 |   398   -0.37500   0.12500  -0.25000   |    0.75921   0.21916  -0.21938    |
 |   399   -0.25000   0.12500  -0.25000   |    0.56940   0.10958  -0.19196    |
 |   400   -0.12500   0.12500  -0.25000   |    0.37960   0.00000  -0.16454    |
 |   401    0.00000   0.25000  -0.25000   |    0.37960  -0.21916  -0.10969    |
 |   402    0.12500   0.25000  -0.25000   |    0.18980  -0.32875  -0.08227    |
 |   403    0.25000   0.25000  -0.25000   |    0.00000  -0.43833  -0.05485    |
 |   404    0.37500   0.25000  -0.25000   |   -0.18980  -0.54791  -0.02742    |
 |   405    0.50000   0.25000  -0.25000   |   -0.37960  -0.65749  -0.00000    |
 |   406   -0.37500   0.25000  -0.25000   |    0.94901   0.10958  -0.19196    |
 |   407   -0.25000   0.25000  -0.25000   |    0.75921   0.00000  -0.16454    |
 |   408   -0.12500   0.25000  -0.25000   |    0.56940  -0.10958  -0.13712    |
 |   409    0.00000   0.37500  -0.25000   |    0.56940  -0.32875  -0.08227    |
 |   410    0.12500   0.37500  -0.25000   |    0.37960  -0.43833  -0.05485    |
 |   411    0.25000   0.37500  -0.25000   |    0.18980  -0.54791  -0.02742    |
 |   412    0.37500   0.37500  -0.25000   |    0.00000  -0.65749  -0.00000    |
 |   413    0.50000   0.37500  -0.25000   |   -0.18980  -0.76707   0.02742    |
 |   414   -0.37500   0.37500  -0.25000   |    1.13881   0.00000  -0.16454    |
 |   415   -0.25000   0.37500  -0.25000   |    0.94901  -0.10958  -0.13712    |
 |   416   -0.12500   0.37500  -0.25000   |    0.75921  -0.21916  -0.10969    |
 |   417    0.00000   0.50000  -0.25000   |    0.75921  -0.43833  -0.05485    |
 |   418    0.12500   0.50000  -0.25000   |    0.56940  -0.54791  -0.02742    |
 |   419    0.25000   0.50000  -0.25000   |    0.37960  -0.65749  -0.00000    |
 |   420    0.37500   0.50000  -0.25000   |    0.18980  -0.76707   0.02742    |
 |   421    0.50000   0.50000  -0.25000   |    0.00000  -0.87665   0.05485    |
 |   422   -0.37500   0.50000  -0.25000   |    1.32861  -0.10958  -0.13712    |
 |   423   -0.25000   0.50000  -0.25000   |    1.13881  -0.21916  -0.10969    |
 |   424   -0.12500   0.50000  -0.25000   |    0.94901  -0.32875  -0.08227    |
 |   425    0.00000  -0.37500  -0.25000   |   -0.56940   0.32875  -0.24681    |
 |   426    0.12500  -0.37500  -0.25000   |   -0.75921   0.21916  -0.21938    |
 |   427    0.25000  -0.37500  -0.25000   |   -0.94901   0.10958  -0.19196    |
 |   428    0.37500  -0.37500  -0.25000   |   -1.13881   0.00000  -0.16454    |
 |   429    0.50000  -0.37500  -0.25000   |   -1.32861  -0.10958  -0.13712    |
 |   430   -0.37500  -0.37500  -0.25000   |    0.00000   0.65749  -0.32908    |
 |   431   -0.25000  -0.37500  -0.25000   |   -0.18980   0.54791  -0.30165    |
 |   432   -0.12500  -0.37500  -0.25000   |   -0.37960   0.43833  -0.27423    |
 |   433    0.00000  -0.25000  -0.25000   |   -0.37960   0.21916  -0.21938    |
 |   434    0.12500  -0.25000  -0.25000   |   -0.56940   0.10958  -0.19196    |
 |   435    0.25000  -0.25000  -0.25000   |   -0.75921   0.00000  -0.16454    |
 |   436    0.37500  -0.25000  -0.25000   |   -0.94901  -0.10958  -0.13712    |
 |   437    0.50000  -0.25000  -0.25000   |   -1.13881  -0.21916  -0.10969    |
 |   438   -0.37500  -0.25000  -0.25000   |    0.18980   0.54791  -0.30165    |
 |   439   -0.25000  -0.25000  -0.25000   |    0.00000   0.43833  -0.27423    |
 |   440   -0.12500  -0.25000  -0.25000   |   -0.18980   0.32875  -0.24681    |
 |   441    0.00000  -0.12500  -0.25000   |   -0.18980   0.10958  -0.19196    |
 |   442    0.12500  -0.12500  -0.25000   |   -0.37960   0.00000  -0.16454    |
 |   443    0.25000  -0.12500  -0.25000   |   -0.56940  -0.10958  -0.13712    |
 |   444    0.37500  -0.12500  -0.25000   |   -0.75921  -0.21916  -0.10969    |
 |   445    0.50000  -0.12500  -0.25000   |   -0.94901  -0.32875  -0.08227    |
 |   446   -0.37500  -0.12500  -0.25000   |    0.37960   0.43833  -0.27423    |
 |   447   -0.25000  -0.12500  -0.25000   |    0.18980   0.32875  -0.24681    |
 |   448   -0.12500  -0.12500  -0.25000   |    0.00000   0.21916  -0.21938    |
 |   449    0.00000   0.00000  -0.12500   |    0.00000   0.00000  -0.08227    |
 |   450    0.12500   0.00000  -0.12500   |   -0.18980  -0.10958  -0.05485    |
 |   451    0.25000   0.00000  -0.12500   |   -0.37960  -0.21916  -0.02742    |
 |   452    0.37500   0.00000  -0.12500   |   -0.56940  -0.32875  -0.00000    |
 |   453    0.50000   0.00000  -0.12500   |   -0.75921  -0.43833   0.02742    |
 |   454   -0.37500   0.00000  -0.12500   |    0.56940   0.32875  -0.16454    |
 |   455   -0.25000   0.00000  -0.12500   |    0.37960   0.21916  -0.13712    |
 |   456   -0.12500   0.00000  -0.12500   |    0.18980   0.10958  -0.10969    |
 |   457    0.00000   0.12500  -0.12500   |    0.18980  -0.10958  -0.05485    |
 |   458    0.12500   0.12500  -0.12500   |    0.00000  -0.21916  -0.02742    |
 |   459    0.25000   0.12500  -0.12500   |   -0.18980  -0.32875  -0.00000    |
 |   460    0.37500   0.12500  -0.12500   |   -0.37960  -0.43833   0.02742    |
 |   461    0.50000   0.12500  -0.12500   |   -0.56940  -0.54791   0.05485    |
 |   462   -0.37500   0.12500  -0.12500   |    0.75921   0.21916  -0.13712    |
 |   463   -0.25000   0.12500  -0.12500   |    0.56940   0.10958  -0.10969    |
 |   464   -0.12500   0.12500  -0.12500   |    0.37960   0.00000  -0.08227    |
 |   465    0.00000   0.25000  -0.12500   |    0.37960  -0.21916  -0.02742    |
 |   466    0.12500   0.25000  -0.12500   |    0.18980  -0.32875  -0.00000    |
 |   467    0.25000   0.25000  -0.12500   |    0.00000  -0.43833   0.02742    |
 |   468    0.37500   0.25000  -0.12500   |   -0.18980  -0.54791   0.05485    |
 |   469    0.50000   0.25000  -0.12500   |   -0.37960  -0.65749   0.08227    |
 |   470   -0.37500   0.25000  -0.12500   |    0.94901   0.10958  -0.10969    |
 |   471   -0.25000   0.25000  -0.12500   |    0.75921   0.00000  -0.08227    |
 |   472   -0.12500   0.25000  -0.12500   |    0.56940  -0.10958  -0.05485    |
 |   473    0.00000   0.37500  -0.12500   |    0.56940  -0.32875  -0.00000    |
 |   474    0.12500   0.37500  -0.12500   |    0.37960  -0.43833   0.02742    |
 |   475    0.25000   0.37500  -0.12500   |    0.18980  -0.54791   0.05485    |
 |   476    0.37500   0.37500  -0.12500   |    0.00000  -0.65749   0.08227    |
 |   477    0.50000   0.37500  -0.12500   |   -0.18980  -0.76707   0.10969    |
 |   478   -0.37500   0.37500  -0.12500   |    1.13881   0.00000  -0.08227    |
 |   479   -0.25000   0.37500  -0.12500   |    0.94901  -0.10958  -0.05485    |
 |   480   -0.12500   0.37500  -0.12500   |    0.75921  -0.21916  -0.02742    |
 |   481    0.00000   0.50000  -0.12500   |    0.75921  -0.43833   0.02742    |
 |   482    0.12500   0.50000  -0.12500   |    0.56940  -0.54791   0.05485    |
 |   483    0.25000   0.50000  -0.12500   |    0.37960  -0.65749   0.08227    |
 |   484    0.37500   0.50000  -0.12500   |    0.18980  -0.76707   0.10969    |
 |   485    0.50000   0.50000  -0.12500   |    0.00000  -0.87665   0.13712    |
 |   486   -0.37500   0.50000  -0.12500   |    1.32861  -0.10958  -0.05485    |
 |   487   -0.25000   0.50000  -0.12500   |    1.13881  -0.21916  -0.02742    |
 |   488   -0.12500   0.50000  -0.12500   |    0.94901  -0.32875  -0.00000    |
 |   489    0.00000  -0.37500  -0.12500   |   -0.56940   0.32875  -0.16454    |
 |   490    0.12500  -0.37500  -0.12500   |   -0.75921   0.21916  -0.13712    |
 |   491    0.25000  -0.37500  -0.12500   |   -0.94901   0.10958  -0.10969    |
 |   492    0.37500  -0.37500  -0.12500   |   -1.13881   0.00000  -0.08227    |
 |   493    0.50000  -0.37500  -0.12500   |   -1.32861  -0.10958  -0.05485    |
 |   494   -0.37500  -0.37500  -0.12500   |    0.00000   0.65749  -0.24681    |
 |   495   -0.25000  -0.37500  -0.12500   |   -0.18980   0.54791  -0.21938    |
 |   496   -0.12500  -0.37500  -0.12500   |   -0.37960   0.43833  -0.19196    |
 |   497    0.00000  -0.25000  -0.12500   |   -0.37960   0.21916  -0.13712    |
 |   498    0.12500  -0.25000  -0.12500   |   -0.56940   0.10958  -0.10969    |
 |   499    0.25000  -0.25000  -0.12500   |   -0.75921   0.00000  -0.08227    |
 |   500    0.37500  -0.25000  -0.12500   |   -0.94901  -0.10958  -0.05485    |
 |   501    0.50000  -0.25000  -0.12500   |   -1.13881  -0.21916  -0.02742    |
 |   502   -0.37500  -0.25000  -0.12500   |    0.18980   0.54791  -0.21938    |
 |   503   -0.25000  -0.25000  -0.12500   |    0.00000   0.43833  -0.19196    |
 |   504   -0.12500  -0.25000  -0.12500   |   -0.18980   0.32875  -0.16454    |
 |   505    0.00000  -0.12500  -0.12500   |   -0.18980   0.10958  -0.10969    |
 |   506    0.12500  -0.12500  -0.12500   |   -0.37960   0.00000  -0.08227    |
 |   507    0.25000  -0.12500  -0.12500   |   -0.56940  -0.10958  -0.05485    |
 |   508    0.37500  -0.12500  -0.12500   |   -0.75921  -0.21916  -0.02742    |
 |   509    0.50000  -0.12500  -0.12500   |   -0.94901  -0.32875  -0.00000    |
 |   510   -0.37500  -0.12500  -0.12500   |    0.37960   0.43833  -0.19196    |
 |   511   -0.25000  -0.12500  -0.12500   |    0.18980   0.32875  -0.16454    |
 |   512   -0.12500  -0.12500  -0.12500   |    0.00000   0.21916  -0.13712    |
 *----------------------------------------------------------------------------*
  
  
 *---------------------------------- MAIN ------------------------------------*
 |  Number of Wannier Functions               :                30             |
 |  Number of input Bloch states              :                60             |
 |  Output verbosity (1=low, 5=high)          :                 2             |
 |  Timing Level (1=low, 5=high)              :                 1             |
 |  Optimisation (0=memory, 3=speed)          :                 3             |
 |  Length Unit                               :               Ang             |
 |  Post-processing setup (write *.nnkp)      :                 F             |
 |  Using Gamma-only branch of algorithms     :                 F             |
 *----------------------------------------------------------------------------*
 *------------------------------- WANNIERISE ---------------------------------*
 |  Total number of iterations                :                 0             |
 |  Number of CG steps before reset           :                 5             |
 |  Trial step length for line search         :             2.000             |
 |  Convergence tolerence                     :         0.100E-09             |
 |  Convergence window                        :                -1             |
 |  Iterations between writing output         :                 1             |
 |  Iterations between backing up to disk     :               100             |
 |  Write r^2_nm to file                      :                 F             |
 |  Write xyz WF centres to file              :                 F             |
 |  Use guiding centre to control phases      :                 F             |
 *----------------------------------------------------------------------------*
 *------------------------------- DISENTANGLE --------------------------------*
 |  Using band disentanglement                :                 T             |
 |  Total number of iterations                :              1000             |
 |  Mixing ratio                              :             0.500             |
 |  Convergence tolerence                     :         1.000E-10             |
 |  Convergence window                        :                 3             |
 *----------------------------------------------------------------------------*
 *-------------------------------- PLOTTING ----------------------------------*
 |  Plotting Hamiltonian in WF basis          :                 T             |
 *----------------------------------------------------------------------------*
 Time to read parameters        0.064 (sec)

 *---------------------------------- K-MESH ----------------------------------*
 +----------------------------------------------------------------------------+
 |                    Distance to Nearest-Neighbour Shells                    |
 |                    ------------------------------------                    |
 |          Shell             Distance (Ang^-1)          Multiplicity         |
 |          -----             -----------------          ------------         |
 |             1                   0.082269                      2            |
 |             2                   0.164539                      2            |
 |             3                   0.220873                      6            |
 |             4                   0.225922                      6            |
 |             5                   0.245082                      6            |
 |             6                   0.246808                      2            |
 |             7                   0.258522                      6            |
 |             8                   0.291345                      6            |
 |             9                   0.310101                      6            |
 |            10                   0.329077                      2            |
 |            11                   0.351049                      6            |
 |            12                   0.372865                      6            |
 +----------------------------------------------------------------------------+
 | The b-vectors are chosen automatically                                     |
 | Shell:  1 w_b   73.8743699      (Ang^2)                                    |
 | Shell:  1 w_b   71.5611332      (Ang^2)                                    |
 | Shell:  2 w_b    6.9397100      (Ang^2)                                    |
 | The following shells are used:   1,  3                                     |
 +----------------------------------------------------------------------------+
 |                        Shell   # Nearest-Neighbours                        |
 |                        -----   --------------------                        |
 |                          1               2                                 |
 |                          3               6                                 |
 +----------------------------------------------------------------------------+
 | Completeness relation is fully satisfied [Eq. (B1), PRB 56, 12847 (1997)]  |
 +----------------------------------------------------------------------------+
 |                  b_k Vectors (Ang^-1) and Weights (Ang^2)                  |
 |                  ----------------------------------------                  |
 |            No.         b_k(x)      b_k(y)      b_k(z)        w_b           |
 |            ---        --------------------------------     --------        |
 |             1         0.000000    0.000000    0.082269    71.561133        |
 |             2         0.000000    0.000000   -0.082269    71.561133        |
 |             3        -0.189801   -0.109582    0.027423     6.939710        |
 |             4         0.189801    0.109582   -0.027423     6.939710        |
 |             5         0.189801   -0.109582    0.027423     6.939710        |
 |             6        -0.189801    0.109582   -0.027423     6.939710        |
 |             7         0.000000    0.219164    0.027423     6.939710        |
 |             8         0.000000   -0.219164   -0.027423     6.939710        |
 +----------------------------------------------------------------------------+
 |                           b_k Directions (Ang^-1)                          |
 |                           -----------------------                          |
 |            No.           x           y           z                         |
 |            ---        --------------------------------                     |
 |             1         0.000000    0.000000    0.082269                     |
 |             2        -0.189801   -0.109582    0.027423                     |
 |             3         0.189801   -0.109582    0.027423                     |
 |             4         0.000000    0.219164    0.027423                     |
 +----------------------------------------------------------------------------+
  
 *============================================================================*
 |                              MEMORY ESTIMATE                               |
 |         Maximum RAM allocated during each phase of the calculation         |
 *============================================================================*
 |                        Disentanglement          317.53 Mb                  |
 |                            Wannierise:          159.91 Mb                  |
 |                                                                            |
 |   N.B. by setting optimisation=0 memory usage will be reduced to:          |
 |                        Disentanglement          317.53 Mb                  |
 |                            Wannierise:          103.66 Mb                  |
 |   However, this will result in more i/o and slow down the calculation      |
 *----------------------------------------------------------------------------*
  
 Starting a new Wannier90 calculation ...

 Time to get kmesh              0.175 (sec)

 Reading overlaps from wannier90.mmn    : File generated by VASP: Bi2Se3

 Reading projections from wannier90.amn : File generated by VASP: Bi2Se3

 Time to read overlaps         12.077 (sec)

 *------------------------------- DISENTANGLE --------------------------------*
 +----------------------------------------------------------------------------+
 |                              Energy  Windows                               |
 |                              ---------------                               |
 |                   Outer:   -2.00000  to   18.00000  (eV)                   |
 |                   Inner:   -2.00000  to    5.50000  (eV)                   |
 +----------------------------------------------------------------------------+
 |                        K-points with Frozen States                         |
 |                        ---------------------------                         |
 |     1     2     3     4     5     6     7     8     9    10    11    12    |
 |    13    14    15    16    17    18    19    20    21    22    23    24    |
 |    25    26    27    28    29    30    31    32    33    34    35    36    |
 |    37    38    39    40    41    42    43    44    45    46    47    48    |
 |    49    50    51    52    53    54    55    56    57    58    59    60    |
 |    61    62    63    64    65    66    67    68    69    70    71    72    |
 |    73    74    75    76    77    78    79    80    81    82    83    84    |
 |    85    86    87    88    89    90    91    92    93    94    95    96    |
 |    97    98    99   100   101   102   103   104   105   106   107   108    |
 |   109   110   111   112   113   114   115   116   117   118   119   120    |
 |   121   122   123   124   125   126   127   128   129   130   131   132    |
 |   133   134   135   136   137   138   139   140   141   142   143   144    |
 |   145   146   147   148   149   150   151   152   153   154   155   156    |
 |   157   158   159   160   161   162   163   164   165   166   167   168    |
 |   169   170   171   172   173   174   175   176   177   178   179   180    |
 |   181   182   183   184   185   186   187   188   189   190   191   192    |
 |   193   194   195   196   197   198   199   200   201   202   203   204    |
 |   205   206   207   208   209   210   211   212   213   214   215   216    |
 |   217   218   219   220   221   222   223   224   225   226   227   228    |
 |   229   230   231   232   233   234   235   236   237   238   239   240    |
 |   241   242   243   244   245   246   247   248   249   250   251   252    |
 |   253   254   255   256   257   258   259   260   261   262   263   264    |
 |   265   266   267   268   269   270   271   272   273   274   275   276    |
 |   277   278   279   280   281   282   283   284   285   286   287   288    |
 |   289   290   291   292   293   294   295   296   297   298   299   300    |
 |   301   302   303   304   305   306   307   308   309   310   311   312    |
 |   313   314   315   316   317   318   319   320   321   322   323   324    |
 |   325   326   327   328   329   330   331   332   333   334   335   336    |
 |   337   338   339   340   341   342   343   344   345   346   347   348    |
 |   349   350   351   352   353   354   355   356   357   358   359   360    |
 |   361   362   363   364   365   366   367   368   369   370   371   372    |
 |   373   374   375   376   377   378   379   380   381   382   383   384    |
 |   385   386   387   388   389   390   391   392   393   394   395   396    |
 |   397   398   399   400   401   402   403   404   405   406   407   408    |
 |   409   410   411   412   413   414   415   416   417   418   419   420    |
 |   421   422   423   424   425   426   427   428   429   430   431   432    |
 |   433   434   435   436   437   438   439   440   441   442   443   444    |
 |   445   446   447   448   449   450   451   452   453   454   455   456    |
 |   457   458   459   460   461   462   463   464   465   466   467   468    |
 |   469   470   471   472   473   474   475   476   477   478   479   480    |
 |   481   482   483   484   485   486   487   488   489   490   491   492    |
 |   493   494   495   496   497   498   499   500   501   502   503   504    |
 |   505   506   507   508   509   510   511   512                            |
 +----------------------------------------------------------------------------+
   Number of target bands to extract:   30
 +----------------------------------------------------------------------------+
 |                                  Windows                                   |
 |                                  -------                                   |
 |               K-point      Ndimwin     Ndimfroz    Nfirstwin               |
 |               ----------------------------------------------               |
 |                   1           50           20          11                  |
 |                   2           50           20          11                  |
 |                   3           50           20          11                  |
 |                   4           50           20          11                  |
 |                   5           50           20          11                  |
 |                   6           50           20          11                  |
 |                   7           50           20          11                  |
 |                   8           50           20          11                  |
 |                   9           50           20          11                  |
 |                  10           50           20          11                  |
 |                  11           50           22          11                  |
 |                  12           50           20          11                  |
 |                  13           50           18          11                  |
 |                  14           50           18          11                  |
 |                  15           50           18          11                  |
 |                  16           50           22          11                  |
 |                  17           50           20          11                  |
 |                  18           50           22          11                  |
 |                  19           50           18          11                  |
 |                  20           50           20          11                  |
 |                  21           50           18          11                  |
 |                  22           50           18          11                  |
 |                  23           50           18          11                  |
 |                  24           50           18          11                  |
 |                  25           50           20          11                  |
 |                  26           50           20          11                  |
 |                  27           50           20          11                  |
 |                  28           50           18          11                  |
 |                  29           50           20          11                  |
 |                  30           50           20          11                  |
 |                  31           50           18          11                  |
 |                  32           50           18          11                  |
 |                  33           50           20          11                  |
 |                  34           50           18          11                  |
 |                  35           50           18          11                  |
 |                  36           50           20          11                  |
 |                  37           50           20          11                  |
 |                  38           50           20          11                  |
 |                  39           50           18          11                  |
 |                  40           50           18          11                  |
 |                  41           50           20          11                  |
 |                  42           50           18          11                  |
 |                  43           50           18          11                  |
 |                  44           50           20          11                  |
 |                  45           50           20          11                  |
 |                  46           50           18          11                  |
 |                  47           50           20          11                  |
 |                  48           50           20          11                  |
 |                  49           50           20          11                  |
 |                  50           50           18          11                  |
 |                  51           50           18          11                  |
 |                  52           50           18          11                  |
 |                  53           50           18          11                  |
 |                  54           50           20          11                  |
 |                  55           50           18          11                  |
 |                  56           50           22          11                  |
 |                  57           50           20          11                  |
 |                  58           50           22          11                  |
 |                  59           50           18          11                  |
 |                  60           50           18          11                  |
 |                  61           50           18          11                  |
 |                  62           50           20          11                  |
 |                  63           50           22          11                  |
 |                  64           50           20          11                  |
 |                  65           50           20          11                  |
 |                  66           50           20          11                  |
 |                  67           50           20          11                  |
 |                  68           50           20          11                  |
 |                  69           50           20          11                  |
 |                  70           50           20          11                  |
 |                  71           50           18          11                  |
 |                  72           50           20          11                  |
 |                  73           50           20          11                  |
 |                  74           50           22          11                  |
 |                  75           50           20          11                  |
 |                  76           50           20          11                  |
 |                  77           50           18          11                  |
 |                  78           50           18          11                  |
 |                  79           50           20          11                  |
 |                  80           50           22          11                  |
 |                  81           50           20          11                  |
 |                  82           50           20          11                  |
 |                  83           50           18          11                  |
 |                  84           50           20          11                  |
 |                  85           50           20          11                  |
 |                  86           50           20          11                  |
 |                  87           50           18          11                  |
 |                  88           50           20          11                  |
 |                  89           50           20          11                  |
 |                  90           50           20          11                  |
 |                  91           50           20          11                  |
 |                  92           50           20          11                  |
 |                  93           50           20          11                  |
 |                  94           50           20          11                  |
 |                  95           50           18          11                  |
 |                  96           50           18          11                  |
 |                  97           50           20          11                  |
 |                  98           50           18          11                  |
 |                  99           50           20          11                  |
 |                 100           50           20          11                  |
 |                 101           50           20          11                  |
 |                 102           50           20          11                  |
 |                 103           50           18          11                  |
 |                 104           50           18          11                  |
 |                 105           50           20          11                  |
 |                 106           50           18          11                  |
 |                 107           50           20          11                  |
 |                 108           50           20          11                  |
 |                 109           50           20          11                  |
 |                 110           50           18          11                  |
 |                 111           50           20          11                  |
 |                 112           50           18          11                  |
 |                 113           50           18          11                  |
 |                 114           50           20          11                  |
 |                 115           50           18          11                  |
 |                 116           50           18          11                  |
 |                 117           50           18          11                  |
 |                 118           50           20          11                  |
 |                 119           50           18          11                  |
 |                 120           50           22          11                  |
 |                 121           50           20          11                  |
 |                 122           50           22          11                  |
 |                 123           50           20          11                  |
 |                 124           50           18          11                  |
 |                 125           50           18          11                  |
 |                 126           50           18          11                  |
 |                 127           50           22          11                  |
 |                 128           50           20          11                  |
 |                 129           50           20          11                  |
 |                 130           50           20          11                  |
 |                 131           50           20          11                  |
 |                 132           50           20          11                  |
 |                 133           50           20          11                  |
 |                 134           50           18          11                  |
 |                 135           50           18          11                  |
 |                 136           50           22          11                  |
 |                 137           50           20          11                  |
 |                 138           50           22          11                  |
 |                 139           50           18          11                  |
 |                 140           50           20          11                  |
 |                 141           50           20          11                  |
 |                 142           50           20          11                  |
 |                 143           50           20          11                  |
 |                 144           50           20          11                  |
 |                 145           50           20          11                  |
 |                 146           50           18          11                  |
 |                 147           50           20          11                  |
 |                 148           50           20          11                  |
 |                 149           50           20          11                  |
 |                 150           50           20          11                  |
 |                 151           50           18          11                  |
 |                 152           50           20          11                  |
 |                 153           50           20          11                  |
 |                 154           50           20          11                  |
 |                 155           50           20          11                  |
 |                 156           50           20          11                  |
 |                 157           50           20          11                  |
 |                 158           50           20          11                  |
 |                 159           50           18          11                  |
 |                 160           50           18          11                  |
 |                 161           50           20          11                  |
 |                 162           50           20          11                  |
 |                 163           50           20          11                  |
 |                 164           50           20          11                  |
 |                 165           50           20          11                  |
 |                 166           50           18          11                  |
 |                 167           50           18          11                  |
 |                 168           50           18          11                  |
 |                 169           50           18          11                  |
 |                 170           50           20          11                  |
 |                 171           50           20          11                  |
 |                 172           50           20          11                  |
 |                 173           50           18          11                  |
 |                 174           50           20          11                  |
 |                 175           50           18          11                  |
 |                 176           50           20          11                  |
 |                 177           50           18          11                  |
 |                 178           50           20          11                  |
 |                 179           50           18          11                  |
 |                 180           50           18          11                  |
 |                 181           50           18          11                  |
 |                 182           50           18          11                  |
 |                 183           50           20          11                  |
 |                 184           50           22          11                  |
 |                 185           50           22          11                  |
 |                 186           50           20          11                  |
 |                 187           50           20          11                  |
 |                 188           50           18          11                  |
 |                 189           50           18          11                  |
 |                 190           50           20          11                  |
 |                 191           50           22          11                  |
 |                 192           50           20          11                  |
 |                 193           50           20          11                  |
 |                 194           50           20          11                  |
 |                 195           50           20          11                  |
 |                 196           50           20          11                  |
 |                 197           50           20          11                  |
 |                 198           50           18          11                  |
 |                 199           50           18          11                  |
 |                 200           50           22          11                  |
 |                 201           50           20          11                  |
 |                 202           50           20          11                  |
 |                 203           50           18          11                  |
 |                 204           50           20          11                  |
 |                 205           50           20          11                  |
 |                 206           50           20          11                  |
 |                 207           50           20          11                  |
 |                 208           50           18          11                  |
 |                 209           50           20          11                  |
 |                 210           50           18          11                  |
 |                 211           50           20          11                  |
 |                 212           50           20          11                  |
 |                 213           50           20          11                  |
 |                 214           50           20          11                  |
 |                 215           50           20          11                  |
 |                 216           50           20          11                  |
 |                 217           50           20          11                  |
 |                 218           50           20          11                  |
 |                 219           50           20          11                  |
 |                 220           50           20          11                  |
 |                 221           50           18          11                  |
 |                 222           50           18          11                  |
[...]
     305      70.12628382      70.12628544      -2.309E-08   5733.58    <-- DIS
     306      70.12628381      70.12628539      -2.256E-08   5750.89    <-- DIS
     307      70.12628380      70.12628534      -2.205E-08   5767.82    <-- DIS
     308      70.12628379      70.12628530      -2.155E-08   5784.92    <-- DIS
     309      70.12628378      70.12628526      -2.105E-08   5802.31    <-- DIS
     310      70.12628378      70.12628522      -2.057E-08   5821.33    <-- DIS
     311      70.12628377      70.12628518      -2.010E-08   5839.52    <-- DIS
     312      70.12628376      70.12628514      -1.964E-08   5856.35    <-- DIS
     313      70.12628376      70.12628510      -1.918E-08   5873.32    <-- DIS
     314      70.12628375      70.12628507      -1.874E-08   5890.20    <-- DIS
     315      70.12628375      70.12628503      -1.831E-08   5907.14    <-- DIS
     316      70.12628375      70.12628500      -1.788E-08   5924.12    <-- DIS
     317      70.12628374      70.12628497      -1.747E-08   5941.42    <-- DIS
     318      70.12628374      70.12628494      -1.706E-08   5958.99    <-- DIS
     319      70.12628374      70.12628491      -1.666E-08   5976.61    <-- DIS
     320      70.12628374      70.12628488      -1.627E-08   5993.52    <-- DIS
     321      70.12628374      70.12628485      -1.589E-08   6011.83    <-- DIS
     322      70.12628374      70.12628483      -1.552E-08   6029.37    <-- DIS
     323      70.12628374      70.12628480      -1.516E-08   6046.75    <-- DIS
     324      70.12628374      70.12628477      -1.480E-08   6064.04    <-- DIS
     325      70.12628374      70.12628475      -1.445E-08   6081.30    <-- DIS
     326      70.12628374      70.12628473      -1.411E-08   6099.44    <-- DIS
     327      70.12628374      70.12628470      -1.377E-08   6119.62    <-- DIS
     328      70.12628374      70.12628468      -1.345E-08   6139.06    <-- DIS
     329      70.12628374      70.12628466      -1.313E-08   6156.22    <-- DIS
     330      70.12628374      70.12628464      -1.281E-08   6173.46    <-- DIS
     331      70.12628374      70.12628462      -1.251E-08   6191.33    <-- DIS
     332      70.12628375      70.12628460      -1.221E-08   6209.32    <-- DIS
     333      70.12628375      70.12628458      -1.191E-08   6227.15    <-- DIS
     334      70.12628375      70.12628456      -1.163E-08   6245.25    <-- DIS
     335      70.12628375      70.12628455      -1.134E-08   6263.02    <-- DIS
     336      70.12628375      70.12628453      -1.107E-08   6280.70    <-- DIS
     337      70.12628376      70.12628451      -1.080E-08   6297.68    <-- DIS
     338      70.12628376      70.12628450      -1.054E-08   6314.93    <-- DIS
     339      70.12628376      70.12628448      -1.028E-08   6331.98    <-- DIS
     340      70.12628376      70.12628447      -1.003E-08   6349.53    <-- DIS
     341      70.12628377      70.12628445      -9.785E-09   6366.38    <-- DIS
     342      70.12628377      70.12628444      -9.545E-09   6383.35    <-- DIS
     343      70.12628377      70.12628443      -9.310E-09   6400.42    <-- DIS
     344      70.12628378      70.12628441      -9.080E-09   6417.50    <-- DIS
     345      70.12628378      70.12628440      -8.855E-09   6434.48    <-- DIS
     346      70.12628378      70.12628439      -8.635E-09   6451.64    <-- DIS
     347      70.12628379      70.12628438      -8.420E-09   6469.66    <-- DIS
     348      70.12628379      70.12628436      -8.210E-09   6487.66    <-- DIS
     349      70.12628379      70.12628435      -8.005E-09   6504.62    <-- DIS
     350      70.12628379      70.12628434      -7.804E-09   6521.47    <-- DIS
     351      70.12628380      70.12628433      -7.607E-09   6538.37    <-- DIS
     352      70.12628380      70.12628432      -7.415E-09   6555.17    <-- DIS
     353      70.12628380      70.12628431      -7.227E-09   6571.96    <-- DIS
     354      70.12628381      70.12628430      -7.044E-09   6588.79    <-- DIS
     355      70.12628381      70.12628429      -6.865E-09   6605.61    <-- DIS
     356      70.12628381      70.12628428      -6.689E-09   6622.54    <-- DIS
     357      70.12628382      70.12628427      -6.518E-09   6639.30    <-- DIS
     358      70.12628382      70.12628427      -6.350E-09   6656.12    <-- DIS
     359      70.12628382      70.12628426      -6.186E-09   6672.92    <-- DIS
     360      70.12628383      70.12628425      -6.026E-09   6689.76    <-- DIS
     361      70.12628383      70.12628424      -5.870E-09   6706.59    <-- DIS
     362      70.12628383      70.12628423      -5.717E-09   6723.55    <-- DIS
     363      70.12628384      70.12628423      -5.567E-09   6741.32    <-- DIS
     364      70.12628384      70.12628422      -5.421E-09   6761.15    <-- DIS
     365      70.12628384      70.12628421      -5.278E-09   6780.09    <-- DIS
     366      70.12628385      70.12628421      -5.139E-09   6797.08    <-- DIS
     367      70.12628385      70.12628420      -5.003E-09   6814.02    <-- DIS
     368      70.12628385      70.12628419      -4.869E-09   6830.98    <-- DIS
     369      70.12628385      70.12628419      -4.739E-09   6847.93    <-- DIS
     370      70.12628386      70.12628418      -4.612E-09   6865.84    <-- DIS
     371      70.12628386      70.12628417      -4.488E-09   6883.93    <-- DIS
     372      70.12628386      70.12628417      -4.367E-09   6902.19    <-- DIS
     373      70.12628387      70.12628416      -4.248E-09   6922.01    <-- DIS
     374      70.12628387      70.12628416      -4.132E-09   6940.84    <-- DIS
     375      70.12628387      70.12628415      -4.019E-09   6957.80    <-- DIS
     376      70.12628387      70.12628415      -3.908E-09   6974.88    <-- DIS
     377      70.12628388      70.12628414      -3.800E-09   6991.85    <-- DIS
     378      70.12628388      70.12628414      -3.695E-09   7008.79    <-- DIS
     379      70.12628388      70.12628413      -3.592E-09   7025.67    <-- DIS
     380      70.12628388      70.12628413      -3.491E-09   7042.45    <-- DIS
     381      70.12628389      70.12628412      -3.393E-09   7059.35    <-- DIS
     382      70.12628389      70.12628412      -3.297E-09   7076.49    <-- DIS
     383      70.12628389      70.12628412      -3.203E-09   7093.79    <-- DIS
     384      70.12628389      70.12628411      -3.112E-09   7114.00    <-- DIS
     385      70.12628390      70.12628411      -3.023E-09   7131.60    <-- DIS
     386      70.12628390      70.12628410      -2.935E-09   7148.71    <-- DIS
     387      70.12628390      70.12628410      -2.850E-09   7165.72    <-- DIS
     388      70.12628390      70.12628410      -2.767E-09   7182.94    <-- DIS
     389      70.12628390      70.12628409      -2.686E-09   7200.15    <-- DIS
     390      70.12628391      70.12628409      -2.606E-09   7217.32    <-- DIS
     391      70.12628391      70.12628409      -2.529E-09   7234.45    <-- DIS
     392      70.12628391      70.12628408      -2.453E-09   7251.62    <-- DIS
     393      70.12628391      70.12628408      -2.380E-09   7271.87    <-- DIS
     394      70.12628391      70.12628408      -2.308E-09   7291.98    <-- DIS
     395      70.12628392      70.12628407      -2.238E-09   7309.02    <-- DIS
     396      70.12628392      70.12628407      -2.169E-09   7326.05    <-- DIS
     397      70.12628392      70.12628407      -2.102E-09   7343.04    <-- DIS
     398      70.12628392      70.12628406      -2.037E-09   7359.85    <-- DIS
     399      70.12628392      70.12628406      -1.973E-09   7376.78    <-- DIS
     400      70.12628392      70.12628406      -1.911E-09   7393.83    <-- DIS
     401      70.12628393      70.12628406      -1.850E-09   7410.89    <-- DIS
     402      70.12628393      70.12628405      -1.791E-09   7427.73    <-- DIS
     403      70.12628393      70.12628405      -1.733E-09   7444.53    <-- DIS
     404      70.12628393      70.12628405      -1.677E-09   7461.47    <-- DIS
     405      70.12628393      70.12628405      -1.622E-09   7478.30    <-- DIS
     406      70.12628393      70.12628404      -1.568E-09   7495.07    <-- DIS
     407      70.12628393      70.12628404      -1.516E-09   7512.00    <-- DIS
     408      70.12628394      70.12628404      -1.465E-09   7528.92    <-- DIS
     409      70.12628394      70.12628404      -1.415E-09   7546.44    <-- DIS
     410      70.12628394      70.12628403      -1.367E-09   7565.42    <-- DIS
     411      70.12628394      70.12628403      -1.320E-09   7584.07    <-- DIS
     412      70.12628394      70.12628403      -1.274E-09   7601.62    <-- DIS
     413      70.12628394      70.12628403      -1.229E-09   7619.04    <-- DIS
     414      70.12628394      70.12628403      -1.185E-09   7636.67    <-- DIS
     415      70.12628394      70.12628402      -1.142E-09   7655.93    <-- DIS
     416      70.12628395      70.12628402      -1.100E-09   7674.20    <-- DIS
     417      70.12628395      70.12628402      -1.060E-09   7691.68    <-- DIS
     418      70.12628395      70.12628402      -1.020E-09   7709.16    <-- DIS
     419      70.12628395      70.12628402      -9.818E-10   7726.22    <-- DIS
     420      70.12628395      70.12628402      -9.442E-10   7743.85    <-- DIS
     421      70.12628395      70.12628401      -9.076E-10   7761.01    <-- DIS
     422      70.12628395      70.12628401      -8.720E-10   7778.02    <-- DIS
     423      70.12628395      70.12628401      -8.372E-10   7794.86    <-- DIS
     424      70.12628395      70.12628401      -8.034E-10   7811.72    <-- DIS
     425      70.12628395      70.12628401      -7.704E-10   7828.52    <-- DIS
     426      70.12628396      70.12628401      -7.383E-10   7845.38    <-- DIS
     427      70.12628396      70.12628401      -7.070E-10   7862.15    <-- DIS
     428      70.12628396      70.12628400      -6.765E-10   7878.98    <-- DIS
     429      70.12628396      70.12628400      -6.469E-10   7895.77    <-- DIS
     430      70.12628396      70.12628400      -6.180E-10   7912.49    <-- DIS
     431      70.12628396      70.12628400      -5.899E-10   7929.35    <-- DIS
     432      70.12628396      70.12628400      -5.625E-10   7946.13    <-- DIS
     433      70.12628396      70.12628400      -5.359E-10   7962.85    <-- DIS
     434      70.12628396      70.12628400      -5.099E-10   7979.52    <-- DIS
     435      70.12628396      70.12628400      -4.847E-10   7996.98    <-- DIS
     436      70.12628396      70.12628399      -4.602E-10   8014.20    <-- DIS
     437      70.12628396      70.12628399      -4.363E-10   8032.43    <-- DIS
     438      70.12628396      70.12628399      -4.130E-10   8052.13    <-- DIS
     439      70.12628396      70.12628399      -3.904E-10   8068.84    <-- DIS
     440      70.12628396      70.12628399      -3.684E-10   8085.75    <-- DIS
     441      70.12628396      70.12628399      -3.470E-10   8102.55    <-- DIS
     442      70.12628397      70.12628399      -3.262E-10   8119.30    <-- DIS
     443      70.12628397      70.12628399      -3.060E-10   8136.40    <-- DIS
     444      70.12628397      70.12628399      -2.864E-10   8155.74    <-- DIS
     445      70.12628397      70.12628399      -2.673E-10   8172.56    <-- DIS
     446      70.12628397      70.12628398      -2.487E-10   8189.53    <-- DIS
     447      70.12628397      70.12628398      -2.307E-10   8206.50    <-- DIS
     448      70.12628397      70.12628398      -2.131E-10   8223.28    <-- DIS
     449      70.12628397      70.12628398      -1.961E-10   8239.94    <-- DIS
     450      70.12628397      70.12628398      -1.796E-10   8257.30    <-- DIS
     451      70.12628397      70.12628398      -1.635E-10   8275.24    <-- DIS
     452      70.12628397      70.12628398      -1.479E-10   8292.72    <-- DIS
     453      70.12628397      70.12628398      -1.327E-10   8309.52    <-- DIS
     454      70.12628397      70.12628398      -1.180E-10   8326.50    <-- DIS
     455      70.12628397      70.12628398      -1.038E-10   8343.40    <-- DIS
     456      70.12628397      70.12628398      -8.992E-11   8360.22    <-- DIS
     457      70.12628397      70.12628398      -7.648E-11   8376.89    <-- DIS
     458      70.12628397      70.12628398      -6.345E-11   8393.57    <-- DIS

             <<<      Delta < 1.000E-10  over  3 iterations     >>>
             <<< Disentanglement convergence criteria satisfied >>>

        Final Omega_I    70.12628398 (Ang^2)

 +----------------------------------------------------------------------------+

 Time to disentangle bands   8420.935 (sec)

 Writing checkpoint file wannier90.chk... done

 
 *------------------------------- WANNIERISE ---------------------------------*
 +--------------------------------------------------------------------+<-- CONV
 | Iter  Delta Spread     RMS Gradient      Spread (Ang^2)      Time  |<-- CONV
 +--------------------------------------------------------------------+<-- CONV
 
 ------------------------------------------------------------------------------
 Initial State
  WF centre and spread    1  ( -0.000040, -1.194745,  6.638646 )     3.00135581
  WF centre and spread    2  (  0.000038, -1.196699,  6.640059 )     3.05024704
  WF centre and spread    3  ( -0.000032, -1.192363,  6.640243 )     3.03256302
  WF centre and spread    4  ( -0.000086, -3.583414,  2.908040 )     3.00131291
  WF centre and spread    5  (  0.000047, -3.581457,  2.906587 )     3.05019607
  WF centre and spread    6  ( -0.000033, -3.585864,  2.906443 )     3.03267256
  WF centre and spread    7  ( -0.000001,  1.194527,  4.773338 )     2.09798868
  WF centre and spread    8  (  0.000003,  1.194538,  4.773336 )     2.05011802
  WF centre and spread    9  ( -0.000037,  1.194536,  4.773327 )     2.04466361
  WF centre and spread   10  (  0.000006, -1.194384,  1.130261 )     2.00572846
  WF centre and spread   11  ( -0.000018, -1.216986,  1.140267 )     1.96783297
  WF centre and spread   12  (  0.000007, -1.172216,  1.140684 )     1.95999088
  WF centre and spread   13  (  0.000011, -3.583770,  8.416406 )     2.00573957
  WF centre and spread   14  ( -0.000002, -3.561169,  8.406398 )     1.96786947
  WF centre and spread   15  ( -0.000007, -3.605960,  8.405979 )     1.95994538
  WF centre and spread   16  (  0.000086, -1.194737,  6.638626 )     3.00130962
  WF centre and spread   17  ( -0.000047, -1.196693,  6.640080 )     3.05019277
  WF centre and spread   18  (  0.000033, -1.192286,  6.640223 )     3.03266922
  WF centre and spread   19  (  0.000040, -3.583406,  2.908021 )     3.00135911
  WF centre and spread   20  ( -0.000038, -3.581452,  2.906608 )     3.05025038
  WF centre and spread   21  (  0.000032, -3.585788,  2.906424 )     3.03256640
  WF centre and spread   22  (  0.000001,  1.194548,  4.773330 )     2.09798869
  WF centre and spread   23  ( -0.000003,  1.194537,  4.773332 )     2.05011802
  WF centre and spread   24  (  0.000037,  1.194539,  4.773340 )     2.04466360
  WF centre and spread   25  ( -0.000011, -1.194381,  1.130260 )     2.00573073
  WF centre and spread   26  (  0.000002, -1.216981,  1.140268 )     1.96786075
  WF centre and spread   27  (  0.000007, -1.172191,  1.140687 )     1.95993647
  WF centre and spread   28  ( -0.000006, -3.583766,  8.416405 )     2.00573730
  WF centre and spread   29  (  0.000018, -3.561165,  8.406400 )     1.96784170
  WF centre and spread   30  ( -0.000007, -3.605935,  8.405982 )     1.95999981
  Sum of centres and spreads (  0.000000,-50.170584,143.200000 )    72.45644902
 
      0     0.725E+02     0.0000000000       72.4563494276    8437.19  <-- CONV
        O_D=      0.0269080 O_OD=      2.3031574 O_TOT=     72.4563494 <-- SPRD
 ------------------------------------------------------------------------------
 Final State
  WF centre and spread    1  ( -0.000040, -1.194745,  6.638646 )     3.00135581
  WF centre and spread    2  (  0.000038, -1.196699,  6.640059 )     3.05024704
  WF centre and spread    3  ( -0.000032, -1.192363,  6.640243 )     3.03256302
  WF centre and spread    4  ( -0.000086, -3.583414,  2.908040 )     3.00131291
  WF centre and spread    5  (  0.000047, -3.581457,  2.906587 )     3.05019607
  WF centre and spread    6  ( -0.000033, -3.585864,  2.906443 )     3.03267256
  WF centre and spread    7  ( -0.000001,  1.194527,  4.773338 )     2.09798868
  WF centre and spread    8  (  0.000003,  1.194538,  4.773336 )     2.05011802
  WF centre and spread    9  ( -0.000037,  1.194536,  4.773327 )     2.04466361
  WF centre and spread   10  (  0.000006, -1.194384,  1.130261 )     2.00572846
  WF centre and spread   11  ( -0.000018, -1.216986,  1.140267 )     1.96783297
  WF centre and spread   12  (  0.000007, -1.172216,  1.140684 )     1.95999088
  WF centre and spread   13  (  0.000011, -3.583770,  8.416406 )     2.00573957
  WF centre and spread   14  ( -0.000002, -3.561169,  8.406398 )     1.96786947
  WF centre and spread   15  ( -0.000007, -3.605960,  8.405979 )     1.95994538
  WF centre and spread   16  (  0.000086, -1.194737,  6.638626 )     3.00130962
  WF centre and spread   17  ( -0.000047, -1.196693,  6.640080 )     3.05019277
  WF centre and spread   18  (  0.000033, -1.192286,  6.640223 )     3.03266922
  WF centre and spread   19  (  0.000040, -3.583406,  2.908021 )     3.00135911
  WF centre and spread   20  ( -0.000038, -3.581452,  2.906608 )     3.05025038
  WF centre and spread   21  (  0.000032, -3.585788,  2.906424 )     3.03256640
  WF centre and spread   22  (  0.000001,  1.194548,  4.773330 )     2.09798869
  WF centre and spread   23  ( -0.000003,  1.194537,  4.773332 )     2.05011802
  WF centre and spread   24  (  0.000037,  1.194539,  4.773340 )     2.04466360
  WF centre and spread   25  ( -0.000011, -1.194381,  1.130260 )     2.00573073
  WF centre and spread   26  (  0.000002, -1.216981,  1.140268 )     1.96786075
  WF centre and spread   27  (  0.000007, -1.172191,  1.140687 )     1.95993647
  WF centre and spread   28  ( -0.000006, -3.583766,  8.416405 )     2.00573730
  WF centre and spread   29  (  0.000018, -3.561165,  8.406400 )     1.96784170
  WF centre and spread   30  ( -0.000007, -3.605935,  8.405982 )     1.95999981
  Sum of centres and spreads (  0.000000,-50.170584,143.200000 )    72.45644902
 
         Spreads (Ang^2)       Omega I      =    70.126283975
        ================       Omega D      =     0.026908013
                               Omega OD     =     2.303157440
    Final Spread (Ang^2)       Omega Total  =    72.456349428
 ------------------------------------------------------------------------------
 Time for wannierise            0.736 (sec)

 Writing checkpoint file wannier90.chk... done

 *---------------------------------------------------------------------------*
 |                               PLOTTING                                    |
 *---------------------------------------------------------------------------*
 
 Time for plotting              4.320 (sec)
 Total Execution Time        8441.703 (sec)

 *===========================================================================*
 |                             TIMING INFORMATION                            |
 *===========================================================================*
 |    Tag                                                Ncalls      Time (s)|
 |---------------------------------------------------------------------------|
 |kmesh: get                                        :         1         0.174|
 |overlap: read                                     :         1        12.077|
 |dis: main                                         :         1      8420.933|
 |wann: main                                        :         1         0.736|
 |plot: main                                        :         1         4.320|
 *---------------------------------------------------------------------------*
 
 All done: wannier90 exiting
